fcc Si                                  
   3.8999999999999999     
     0.500000    0.500000    0.000000
     0.000000    0.500000    0.500000
     0.500000    0.000000    0.500000
   Si
     1
Direct
  0.000000  0.000000  0.000000

   20   20   20
 -2.5613     -1.7631     0.29411      2.7776      4.7889      5.7894      5.7870      5.2153      4.6009      4.1813    
  4.0337      4.1813      4.6009      5.2153      5.7870      5.7894      4.7889      2.7776     0.29411     -1.7631    
 -1.7631     -.33818      1.9095      4.0964      5.5021      5.8816      5.4887      4.8409      4.3149      4.0289    
  4.0291      4.3152      4.8409      5.4885      5.8816      5.5024      4.0966      1.9091     -.33900     -1.7635    
 0.29411      1.9095      3.8120      5.2660      5.8569      5.6385      5.0147      4.4179      4.0172      3.8773    
  4.0172      4.4179      5.0147      5.6385      5.8569      5.2660      3.8120      1.9094     0.29398     -.33900    
  2.7776      4.0964      5.2660      5.8309      5.6955      5.1163      4.4851      4.0035      3.7468      3.7467    
  4.0033      4.4850      5.1164      5.6955      5.8307      5.2659      4.0967      2.7782      1.9094      1.9091    
  4.7889      5.5021      5.8569      5.6955      5.1491      4.5176      3.9925      3.6529      3.5362      3.6529    
  3.9925      4.5176      5.1492      5.6956      5.8569      5.5021      4.7890      4.0967      3.8120      4.0966    
  5.7894      5.8816      5.6385      5.1163      4.5176      3.9885      3.6042      3.4048      3.4049      3.6043    
  3.9886      4.5177      5.1164      5.6387      5.8816      5.7892      5.5021      5.2659      5.2660      5.5024    
  5.7870      5.4887      5.0147      4.4851      3.9925      3.6042      3.3605      3.2781      3.3606      3.6042    
  3.9925      4.4851      5.0147      5.4887      5.7870      5.8816      5.8569      5.8307      5.8569      5.8816    
  5.2153      4.8409      4.4179      4.0035      3.6529      3.4048      3.2781      3.2781      3.4049      3.6528    
  4.0033      4.4178      4.8409      5.2155      5.4887      5.6387      5.6956      5.6955      5.6385      5.4885    
  4.6009      4.3149      4.0172      3.7468      3.5362      3.4049      3.3606      3.4049      3.5362      3.7468    
  4.0172      4.3149      4.6009      4.8409      5.0147      5.1164      5.1492      5.1164      5.0147      4.8409    
  4.1813      4.0289      3.8773      3.7467      3.6529      3.6043      3.6042      3.6528      3.7468      3.8776    
  4.0291      4.1812      4.3149      4.4178      4.4851      4.5177      4.5176      4.4850      4.4179      4.3152    
  4.0337      4.0291      4.0172      4.0033      3.9925      3.9886      3.9925      4.0033      4.0172      4.0291    
  4.0338      4.0291      4.0172      4.0033      3.9925      3.9886      3.9925      4.0033      4.0172      4.0291    
  4.1813      4.3152      4.4179      4.4850      4.5176      4.5177      4.4851      4.4178      4.3149      4.1812    
  4.0291      3.8776      3.7468      3.6528      3.6042      3.6043      3.6529      3.7467      3.8773      4.0289    
  4.6009      4.8409      5.0147      5.1164      5.1492      5.1164      5.0147      4.8409      4.6009      4.3149    
  4.0172      3.7468      3.5362      3.4049      3.3606      3.4049      3.5362      3.7468      4.0172      4.3149    
  5.2153      5.4885      5.6385      5.6955      5.6956      5.6387      5.4887      5.2155      4.8409      4.4178    
  4.0033      3.6528      3.4049      3.2781      3.2781      3.4048      3.6529      4.0035      4.4179      4.8409    
  5.7870      5.8816      5.8569      5.8307      5.8569      5.8816      5.7870      5.4887      5.0147      4.4851    
  3.9925      3.6042      3.3606      3.2781      3.3605      3.6042      3.9925      4.4851      5.0147      5.4887    
  5.7894      5.5024      5.2660      5.2659      5.5021      5.7892      5.8816      5.6387      5.1164      4.5177    
  3.9886      3.6043      3.4049      3.4048      3.6042      3.9885      4.5176      5.1163      5.6385      5.8816    
  4.7889      4.0966      3.8120      4.0967      4.7890      5.5021      5.8569      5.6956      5.1492      4.5176    
  3.9925      3.6529      3.5362      3.6529      3.9925      4.5176      5.1491      5.6955      5.8569      5.5021    
  2.7776      1.9091      1.9094      2.7782      4.0967      5.2659      5.8307      5.6955      5.1164      4.4850    
  4.0033      3.7467      3.7468      4.0035      4.4851      5.1163      5.6955      5.8309      5.2660      4.0964    
 0.29411     -.33900     0.29398      1.9094      3.8120      5.2660      5.8569      5.6385      5.0147      4.4179    
  4.0172      3.8773      4.0172      4.4179      5.0147      5.6385      5.8569      5.2660      3.8120      1.9095    
 -1.7631     -1.7635     -.33900      1.9091      4.0966      5.5024      5.8816      5.4885      4.8409      4.3152    
  4.0291      4.0289      4.3149      4.8409      5.4887      5.8816      5.5021      4.0964      1.9095     -.33818    
 -1.7631     -.33822      1.9095      4.0964      5.5021      5.8816      5.4887      4.8409      4.3149      4.0289    
  4.0291      4.3152      4.8409      5.4885      5.8816      5.5025      4.0966      1.9091     -.33899     -1.7635    
 -.33822      1.4208      3.5100      5.1406      5.8589      5.7057      5.0953      4.4917      4.0843      3.9417    
  4.0843      4.4917      5.0952      5.7058      5.8593      5.1409      3.5097      1.4199     -.33907     -1.0256    
  1.9095      3.5100      4.9829      5.7920      5.7992      5.2640      4.6220      4.1248      3.8582      3.8581    
  4.1246      4.6219      5.2642      5.7994      5.7921      4.9828      3.5098      1.9093     0.87050     0.87055    
  4.0964      5.1406      5.7920      5.8218      5.3446      4.7003      4.1501      3.7905      3.6664      3.7905    
  4.1501      4.7002      5.3445      5.8217      5.7920      5.1407      4.0968      3.1432      2.7589      3.1429    
  5.5021      5.8589      5.7992      5.3446      4.7264      4.1623      3.7471      3.5302      3.5303      3.7472    
  4.1622      4.7262      5.3445      5.7993      5.8591      5.5022      4.9520      4.5514      4.5514      4.9520    
  5.8816      5.7057      5.2640      4.7003      4.1623      3.7324      3.4605      3.3681      3.4605      3.7324    
  4.1622      4.7003      5.2642      5.7058      5.8815      5.8034      5.6282      5.5425      5.6283      5.8036    
  5.4887      5.0953      4.6220      4.1501      3.7471      3.4605      3.3136      3.3136      3.4604      3.7471    
  4.1501      4.6220      5.0952      5.4887      5.7217      5.8017      5.8063      5.8062      5.8016      5.7216    
  4.8409      4.4917      4.1248      3.7905      3.5302      3.3681      3.3136      3.3682      3.5302      3.7904    
  4.1246      4.4915      4.8409      5.1293      5.3272      5.4299      5.4596      5.4297      5.3269      5.1291    
  4.3149      4.0843      3.8582      3.6664      3.5303      3.4605      3.4604      3.5302      3.6664      3.8582    
  4.0843      4.3149      4.5203      4.6794      4.7836      4.8339      4.8339      4.7835      4.6794      4.5203    
  4.0289      3.9417      3.8581      3.7905      3.7472      3.7324      3.7471      3.7904      3.8582      3.9419    
  4.0291      4.1072      4.1677      4.2082      4.2303      4.2372      4.2303      4.2083      4.1679      4.1072    
  4.0291      4.0843      4.1246      4.1501      4.1622      4.1622      4.1501      4.1246      4.0843      4.0291    
  3.9624      3.8918      3.8276      3.7796      3.7541      3.7541      3.7796      3.8276      3.8918      3.9623    
  4.3152      4.4917      4.6219      4.7002      4.7262      4.7003      4.6220      4.4915      4.3149      4.1072    
  3.8918      3.6957      3.5422      3.4460      3.4135      3.4461      3.5422      3.6956      3.8917      4.1073    
  4.8409      5.0952      5.2642      5.3445      5.3445      5.2642      5.0952      4.8409      4.5203      4.1677    
  3.8276      3.5422      3.3410      3.2382      3.2382      3.3410      3.5423      3.8276      4.1677      4.5203    
  5.4885      5.7058      5.7994      5.8217      5.7993      5.7058      5.4887      5.1293      4.6794      4.2082    
  3.7796      3.4460      3.2382      3.1680      3.2381      3.4460      3.7797      4.2083      4.6794      5.1290    
  5.8816      5.8593      5.7921      5.7920      5.8591      5.8815      5.7217      5.3272      4.7836      4.2303    
  3.7541      3.4135      3.2382      3.2381      3.4134      3.7541      4.2303      4.7836      5.3271      5.7217    
  5.5025      5.1409      4.9828      5.1407      5.5022      5.8034      5.8017      5.4299      4.8339      4.2372    
  3.7541      3.4461      3.3410      3.4460      3.7541      4.2370      4.8338      5.4298      5.8018      5.8037    
  4.0966      3.5097      3.5098      4.0968      4.9520      5.6282      5.8063      5.4596      4.8339      4.2303    
  3.7796      3.5422      3.5423      3.7797      4.2303      4.8338      5.4595      5.8063      5.6283      4.9520    
  1.9091      1.4199      1.9093      3.1432      4.5514      5.5425      5.8062      5.4297      4.7835      4.2083    
  3.8276      3.6956      3.8276      4.2083      4.7836      5.4298      5.8063      5.5425      4.5512      3.1429    
 -.33899     -.33907     0.87050      2.7589      4.5514      5.6283      5.8016      5.3269      4.6794      4.1679    
  3.8918      3.8917      4.1677      4.6794      5.3271      5.8018      5.6283      4.5512      2.7588     0.87058    
 -1.7635     -1.0256     0.87055      3.1429      4.9520      5.8036      5.7216      5.1291      4.5203      4.1072    
  3.9623      4.1073      4.5203      5.1290      5.7217      5.8037      4.9520      3.1429     0.87058     -1.0256    
 0.29406      1.9095      3.8120      5.2660      5.8569      5.6385      5.0147      4.4180      4.0172      3.8773    
  4.0173      4.4179      5.0147      5.6385      5.8569      5.2661      3.8120      1.9094     0.29397     -.33901    
  1.9095      3.5100      4.9829      5.7920      5.7992      5.2640      4.6220      4.1248      3.8582      3.8581    
  4.1246      4.6220      5.2642      5.7994      5.7921      4.9828      3.5098      1.9093     0.87047     0.87053    
  3.8120      4.9829      5.7493      5.8556      5.4095      4.7636      4.2053      3.8388      3.7122      3.8388    
  4.2052      4.7636      5.4096      5.8556      5.7493      4.9829      3.8120      2.7589      2.3369      2.7588    
  5.2660      5.7920      5.8556      5.4561      4.8356      4.2546      3.8236      3.5975      3.5976      3.8238    
  4.2546      4.8355      5.4559      5.8555      5.7921      5.2662      4.5515      4.0490      4.0488      4.5512    
  5.8569      5.7992      5.4095      4.8356      4.2712      3.8157      3.5259      3.4272      3.5259      3.8157    
  4.2712      4.8356      5.4096      5.7992      5.8569      5.6283      5.3268      5.1918      5.3268      5.6283    
  5.6385      5.2640      4.7636      4.2546      3.8157      3.5017      3.3403      3.3403      3.5017      3.8156    
  4.2546      4.7637      5.2642      5.6385      5.8015      5.7940      5.7389      5.7390      5.7942      5.8017    
  5.0147      4.6220      4.2053      3.8236      3.5259      3.3403      3.2778      3.3403      3.5259      3.8236    
  4.2052      4.6220      5.0147      5.3271      5.5155      5.5949      5.6132      5.5949      5.5155      5.3271    
  4.4180      4.1248      3.8388      3.5975      3.4272      3.3403      3.3403      3.4273      3.5976      3.8387    
  4.1246      4.4178      4.6794      4.8815      5.0127      5.0743      5.0742      5.0125      4.8813      4.6794    
  4.0172      3.8582      3.7122      3.5976      3.5259      3.5017      3.5259      3.5976      3.7122      3.8582    
  4.0172      4.1677      4.2919      4.3802      4.4314      4.4479      4.4314      4.3802      4.2919      4.1677    
  3.8773      3.8581      3.8388      3.8238      3.8157      3.8156      3.8236      3.8387      3.8582      3.8775    
  3.8918      3.8983      3.8980      3.8944      3.8914      3.8914      3.8945      3.8982      3.8983      3.8916    
  4.0173      4.1246      4.2052      4.2546      4.2712      4.2546      4.2052      4.1246      4.0172      3.8918    
  3.7613      3.6414      3.5463      3.4860      3.4654      3.4860      3.5463      3.6414      3.7613      3.8918    
  4.4179      4.6220      4.7636      4.8355      4.8356      4.7637      4.6220      4.4178      4.1677      3.8983    
  3.6414      3.4267      3.2752      3.1978      3.1978      3.2752      3.4266      3.6413      3.8984      4.1679    
  5.0147      5.2642      5.4096      5.4559      5.4096      5.2642      5.0147      4.6794      4.2919      3.8980    
  3.5463      3.2752      3.1071      3.0505      3.1071      3.2752      3.5463      3.8980      4.2919      4.6794    
  5.6385      5.7994      5.8556      5.8555      5.7992      5.6385      5.3271      4.8815      4.3802      3.8944    
  3.4860      3.1978      3.0505      3.0505      3.1977      3.4860      3.8945      4.3802      4.8813      5.3269    
  5.8569      5.7921      5.7493      5.7921      5.8569      5.8015      5.5155      5.0127      4.4314      3.8914    
  3.4654      3.1978      3.1071      3.1977      3.4654      3.8913      4.4314      5.0127      5.5155      5.8016    
  5.2661      4.9828      4.9829      5.2662      5.6283      5.7940      5.5949      5.0743      4.4479      3.8914    
  3.4860      3.2752      3.2752      3.4860      3.8913      4.4477      5.0742      5.5951      5.7942      5.6284    
  3.8120      3.5098      3.8120      4.5515      5.3268      5.7389      5.6132      5.0742      4.4314      3.8945    
  3.5463      3.4266      3.5463      3.8945      4.4314      5.0742      5.6132      5.7388      5.3268      4.5514    
  1.9094      1.9093      2.7589      4.0490      5.1918      5.7390      5.5949      5.0125      4.3802      3.8982    
  3.6414      3.6413      3.8980      4.3802      5.0127      5.5951      5.7388      5.1915      4.0488      2.7589    
 0.29397     0.87047      2.3369      4.0488      5.3268      5.7942      5.5155      4.8813      4.2919      3.8983    
  3.7613      3.8984      4.2919      4.8813      5.5155      5.7942      5.3268      4.0488      2.3369     0.87051    
 -.33901     0.87053      2.7588      4.5512      5.6283      5.8017      5.3271      4.6794      4.1677      3.8916    
  3.8918      4.1679      4.6794      5.3269      5.8016      5.6284      4.5514      2.7589     0.87051     -.33904    
  2.7776      4.0964      5.2660      5.8309      5.6955      5.1163      4.4851      4.0035      3.7468      3.7467    
  4.0033      4.4851      5.1164      5.6955      5.8307      5.2659      4.0967      2.7781      1.9094      1.9091    
  4.0964      5.1406      5.7920      5.8218      5.3446      4.7003      4.1501      3.7905      3.6664      3.7905    
  4.1501      4.7002      5.3445      5.8217      5.7920      5.1408      4.0967      3.1431      2.7589      3.1429    
  5.2660      5.7920      5.8556      5.4561      4.8356      4.2546      3.8236      3.5975      3.5976      3.8238    
  4.2546      4.8355      5.4559      5.8555      5.7921      5.2662      4.5515      4.0489      4.0488      4.5512    
  5.8309      5.8218      5.4561      4.8815      4.3086      3.8445      3.5486      3.4478      3.5487      3.8446    
  4.3087      4.8816      5.4559      5.8215      5.8308      5.5428      5.1919      5.0376      5.1916      5.5425    
  5.6955      5.3446      4.8356      4.3086      3.8516      3.5237      3.3547      3.3547      3.5236      3.8517    
  4.3088      4.8357      5.3444      5.6953      5.8062      5.7390      5.6442      5.6442      5.7389      5.8063    
  5.1163      4.7003      4.2546      3.8445      3.5237      3.3234      3.2558      3.3233      3.5236      3.8445    
  4.2547      4.7004      5.1164      5.4297      5.5948      5.6461      5.6522      5.6464      5.5950      5.4298    
  4.4851      4.1501      3.8236      3.5486      3.3547      3.2558      3.2558      3.3547      3.5487      3.8237    
  4.1501      4.4851      4.7836      5.0126      5.1552      5.2178      5.2179      5.1553      5.0127      4.7836    
  4.0035      3.7905      3.5975      3.4478      3.3547      3.3233      3.3547      3.4478      3.5976      3.7904    
  4.0033      4.2082      4.3802      4.5047      4.5777      4.6014      4.5776      4.5046      4.3803      4.2083    
  3.7468      3.6664      3.5976      3.5487      3.5236      3.5236      3.5487      3.5976      3.6664      3.7468    
  3.8277      3.8980      3.9512      3.9851      4.0013      4.0013      3.9851      3.9512      3.8980      3.8276    
  3.7467      3.7905      3.8238      3.8446      3.8517      3.8445      3.8237      3.7904      3.7468      3.6957    
  3.6414      3.5897      3.5474      3.5197      3.5101      3.5198      3.5474      3.5898      3.6413      3.6955    
  4.0033      4.1501      4.2546      4.3087      4.3088      4.2547      4.1501      4.0033      3.8277      3.6414    
  3.4651      3.3180      3.2139      3.1605      3.1604      3.2139      3.3180      3.4651      3.6414      3.8276    
  4.4851      4.7002      4.8355      4.8816      4.8357      4.7004      4.4851      4.2082      3.8980      3.5897    
  3.3180      3.1098      2.9809      2.9375      2.9809      3.1098      3.3180      3.5898      3.8982      4.2083    
  5.1164      5.3445      5.4559      5.4559      5.3444      5.1164      4.7836      4.3802      3.9512      3.5474    
  3.2139      2.9809      2.8624      2.8624      2.9809      3.2139      3.5474      3.9512      4.3802      4.7835    
  5.6955      5.8217      5.8555      5.8215      5.6953      5.4297      5.0126      4.5047      3.9851      3.5197    
  3.1605      2.9375      2.8624      2.9375      3.1605      3.5197      3.9851      4.5046      5.0125      5.4297    
  5.8307      5.7920      5.7921      5.8308      5.8062      5.5948      5.1552      4.5777      4.0013      3.5101    
  3.1604      2.9809      2.9809      3.1605      3.5101      4.0012      4.5777      5.1553      5.5949      5.8062    
  5.2659      5.1408      5.2662      5.5428      5.7390      5.6461      5.2178      4.6014      4.0013      3.5198    
  3.2139      3.1098      3.2139      3.5197      4.0012      4.6014      5.2180      5.6464      5.7390      5.5425    
  4.0967      4.0967      4.5515      5.1919      5.6442      5.6522      5.2179      4.5776      3.9851      3.5474    
  3.3180      3.3180      3.5474      3.9851      4.5777      5.2180      5.6523      5.6441      5.1918      4.5514    
  2.7781      3.1431      4.0489      5.0376      5.6442      5.6464      5.1553      4.5046      3.9512      3.5898    
  3.4651      3.5898      3.9512      4.5046      5.1553      5.6464      5.6441      5.0376      4.0489      3.1432    
  1.9094      2.7589      4.0488      5.1916      5.7389      5.5950      5.0127      4.3803      3.8980      3.6413    
  3.6414      3.8982      4.3802      5.0125      5.5949      5.7390      5.1918      4.0489      2.7589      1.9094    
  1.9091      3.1429      4.5512      5.5425      5.8063      5.4298      4.7836      4.2083      3.8276      3.6955    
  3.8276      4.2083      4.7835      5.4297      5.8062      5.5425      4.5514      3.1432      1.9094      1.4199    
  4.7889      5.5021      5.8569      5.6956      5.1491      4.5176      3.9926      3.6529      3.5362      3.6528    
  3.9925      4.5176      5.1491      5.6955      5.8569      5.5022      4.7890      4.0967      3.8120      4.0967    
  5.5021      5.8589      5.7992      5.3446      4.7264      4.1623      3.7471      3.5302      3.5302      3.7472    
  4.1622      4.7262      5.3445      5.7993      5.8591      5.5022      4.9520      4.5514      4.5514      4.9520    
  5.8569      5.7992      5.4096      4.8356      4.2712      3.8157      3.5259      3.4272      3.5259      3.8157    
  4.2712      4.8356      5.4095      5.7992      5.8568      5.6283      5.3268      5.1918      5.3268      5.6283    
  5.6956      5.3446      4.8356      4.3086      3.8516      3.5237      3.3547      3.3547      3.5236      3.8517    
  4.3088      4.8357      5.3444      5.6953      5.8062      5.7389      5.6442      5.6442      5.7389      5.8063    
  5.1491      4.7264      4.2712      3.8516      3.5229      3.3177      3.2484      3.3177      3.5230      3.8516    
  4.2713      4.7264      5.1491      5.4594      5.6131      5.6522      5.6531      5.6523      5.6131      5.4594    
  4.5176      4.1623      3.8157      3.5237      3.3177      3.2126      3.2126      3.3177      3.5236      3.8156    
  4.1623      4.5178      4.8339      5.0741      5.2179      5.2782      5.2783      5.2180      5.0741      4.8337    
  3.9926      3.7471      3.5259      3.3547      3.2484      3.2126      3.2484      3.3547      3.5259      3.7471    
  3.9926      4.2303      4.4314      4.5777      4.6639      4.6920      4.6639      4.5777      4.4314      4.2303    
  3.6529      3.5302      3.4272      3.3547      3.3177      3.3177      3.3547      3.4272      3.5302      3.6528    
  3.7796      3.8944      3.9852      4.0459      4.0757      4.0756      4.0457      3.9851      3.8945      3.7797    
  3.5362      3.5302      3.5259      3.5236      3.5230      3.5236      3.5259      3.5302      3.5362      3.5422    
  3.5463      3.5474      3.5461      3.5442      3.5433      3.5441      3.5461      3.5474      3.5463      3.5422    
  3.6528      3.7472      3.8157      3.8517      3.8516      3.8156      3.7471      3.6528      3.5422      3.4266    
  3.3180      3.2273      3.1627      3.1294      3.1294      3.1628      3.2273      3.3179      3.4265      3.5421    
  3.9925      4.1622      4.2712      4.3088      4.2713      4.1623      3.9926      3.7796      3.5463      3.3180    
  3.1185      2.9659      2.8713      2.8393      2.8713      2.9659      3.1185      3.3180      3.5463      3.7796    
  4.5176      4.7262      4.8356      4.8357      4.7264      4.5178      4.2303      3.8944      3.5474      3.2273    
  2.9659      2.7841      2.6917      2.6917      2.7841      2.9659      3.2273      3.5475      3.8945      4.2303    
  5.1491      5.3445      5.4095      5.3444      5.1491      4.8339      4.4314      3.9852      3.5461      3.1627    
  2.8713      2.6917      2.6314      2.6917      2.8713      3.1627      3.5461      3.9851      4.4313      4.8339    
  5.6955      5.7993      5.7992      5.6953      5.4594      5.0741      4.5777      4.0459      3.5442      3.1294    
  2.8393      2.6917      2.6917      2.8394      3.1294      3.5441      4.0457      4.5776      5.0741      5.4596    
  5.8569      5.8591      5.8568      5.8062      5.6131      5.2179      4.6639      4.0757      3.5433      3.1294    
  2.8713      2.7841      2.8713      3.1294      3.5433      4.0757      4.6639      5.2179      5.6132      5.8063    
  5.5022      5.5022      5.6283      5.7389      5.6522      5.2782      4.6920      4.0756      3.5441      3.1628    
  2.9659      2.9659      3.1627      3.5441      4.0757      4.6922      5.2784      5.6523      5.7389      5.6282    
  4.7890      4.9520      5.3268      5.6442      5.6531      5.2783      4.6639      4.0457      3.5461      3.2273    
  3.1185      3.2273      3.5461      4.0457      4.6639      5.2784      5.6531      5.6442      5.3268      4.9520    
  4.0967      4.5514      5.1918      5.6442      5.6523      5.2180      4.5777      3.9851      3.5474      3.3179    
  3.3180      3.5475      3.9851      4.5776      5.2179      5.6523      5.6442      5.1919      4.5515      4.0968    
  3.8120      4.5514      5.3268      5.7389      5.6131      5.0741      4.4314      3.8945      3.5463      3.4265    
  3.5463      3.8945      4.4313      5.0741      5.6132      5.7389      5.3268      4.5515      3.8120      3.5098    
  4.0967      4.9520      5.6283      5.8063      5.4594      4.8337      4.2303      3.7797      3.5422      3.5421    
  3.7796      4.2303      4.8339      5.4596      5.8063      5.6282      4.9520      4.0968      3.5098      3.5098    
  5.7894      5.8816      5.6385      5.1163      4.5176      3.9885      3.6042      3.4049      3.4049      3.6043    
  3.9886      4.5177      5.1164      5.6387      5.8816      5.7892      5.5021      5.2659      5.2661      5.5024    
  5.8816      5.7057      5.2640      4.7003      4.1622      3.7323      3.4605      3.3681      3.4605      3.7323    
  4.1623      4.7003      5.2642      5.7058      5.8815      5.8034      5.6282      5.5425      5.6284      5.8036    
  5.6385      5.2640      4.7636      4.2546      3.8157      3.5017      3.3403      3.3403      3.5017      3.8156    
  4.2546      4.7638      5.2641      5.6385      5.8015      5.7940      5.7389      5.7390      5.7942      5.8018    
  5.1163      4.7003      4.2546      3.8445      3.5236      3.3234      3.2558      3.3233      3.5236      3.8445    
  4.2547      4.7004      5.1164      5.4297      5.5948      5.6461      5.6522      5.6464      5.5951      5.4298    
  4.5176      4.1622      3.8157      3.5236      3.3177      3.2126      3.2126      3.3177      3.5236      3.8156    
  4.1623      4.5178      4.8339      5.0741      5.2179      5.2783      5.2784      5.2180      5.0742      4.8337    
  3.9885      3.7323      3.5017      3.3234      3.2126      3.1754      3.2126      3.3233      3.5017      3.7323    
  3.9886      4.2373      4.4479      4.6014      4.6921      4.7217      4.6922      4.6014      4.4477      4.2370    
  3.6042      3.4605      3.3403      3.2558      3.2126      3.2126      3.2557      3.3403      3.4604      3.6042    
  3.7541      3.8914      4.0013      4.0757      4.1127      4.1127      4.0757      4.0012      3.8913      3.7541    
  3.4049      3.3681      3.3403      3.3233      3.3177      3.3233      3.3403      3.3682      3.4049      3.4460    
  3.4860      3.5197      3.5442      3.5586      3.5632      3.5585      3.5441      3.5198      3.4861      3.4461    
  3.4049      3.4605      3.5017      3.5236      3.5236      3.5017      3.4604      3.4049      3.3410      3.2752    
  3.2139      3.1627      3.1261      3.1071      3.1070      3.1261      3.1627      3.2139      3.2752      3.3410    
  3.6043      3.7323      3.8156      3.8445      3.8156      3.7323      3.6042      3.4460      3.2752      3.1098    
  2.9659      2.8558      2.7871      2.7639      2.7872      2.8558      2.9659      3.1098      3.2752      3.4460    
  3.9886      4.1623      4.2546      4.2547      4.1623      3.9886      3.7541      3.4860      3.2139      2.9659    
  2.7644      2.6241      2.5525      2.5525      2.6241      2.7644      2.9660      3.2139      3.4860      3.7541    
  4.5177      4.7003      4.7638      4.7004      4.5178      4.2373      3.8914      3.5197      3.1627      2.8558    
  2.6241      2.4816      2.4337      2.4816      2.6241      2.8558      3.1628      3.5198      3.8914      4.2372    
  5.1164      5.2642      5.2641      5.1164      4.8339      4.4479      4.0013      3.5442      3.1261      2.7871    
  2.5525      2.4337      2.4337      2.5526      2.7871      3.1261      3.5442      4.0013      4.4479      4.8339    
  5.6387      5.7058      5.6385      5.4297      5.0741      4.6014      4.0757      3.5586      3.1071      2.7639    
  2.5525      2.4816      2.5526      2.7639      3.1070      3.5585      4.0756      4.6014      5.0742      5.4299    
  5.8816      5.8815      5.8015      5.5948      5.2179      4.6921      4.1127      3.5632      3.1070      2.7872    
  2.6241      2.6241      2.7871      3.1070      3.5632      4.1127      4.6920      5.2179      5.5949      5.8017    
  5.7892      5.8034      5.7940      5.6461      5.2783      4.7217      4.1127      3.5585      3.1261      2.8558    
  2.7644      2.8558      3.1261      3.5585      4.1127      4.7217      5.2783      5.6461      5.7940      5.8034    
  5.5021      5.6282      5.7389      5.6522      5.2784      4.6922      4.0757      3.5441      3.1627      2.9659    
  2.9660      3.1628      3.5442      4.0756      4.6920      5.2783      5.6522      5.7390      5.6283      5.5022    
  5.2659      5.5425      5.7390      5.6464      5.2180      4.6014      4.0012      3.5198      3.2139      3.1098    
  3.2139      3.5198      4.0013      4.6014      5.2179      5.6461      5.7390      5.5428      5.2662      5.1407    
  5.2661      5.6284      5.7942      5.5951      5.0742      4.4477      3.8913      3.4861      3.2752      3.2752    
  3.4860      3.8914      4.4479      5.0742      5.5949      5.7940      5.6283      5.2662      4.9829      4.9828    
  5.5024      5.8036      5.8018      5.4298      4.8337      4.2370      3.7541      3.4461      3.3410      3.4460    
  3.7541      4.2372      4.8339      5.4299      5.8017      5.8034      5.5022      5.1407      4.9828      5.1409    
  5.7869      5.4886      5.0147      4.4851      3.9925      3.6042      3.3606      3.2781      3.3606      3.6042    
  3.9926      4.4851      5.0147      5.4887      5.7870      5.8816      5.8569      5.8307      5.8569      5.8816    
  5.4886      5.0953      4.6220      4.1501      3.7470      3.4605      3.3136      3.3136      3.4604      3.7471    
  4.1501      4.6220      5.0952      5.4887      5.7217      5.8017      5.8062      5.8062      5.8016      5.7216    
  5.0147      4.6220      4.2053      3.8236      3.5258      3.3403      3.2778      3.3403      3.5259      3.8236    