fcc Si                                  
   3.8999999999999999     
     0.500000    0.500000    0.000000
     0.000000    0.500000    0.500000
     0.500000    0.000000    0.500000
   Si
     1
Direct
  0.000000  0.000000  0.000000

   20   20   20
 -.25612856524E+01 -.17630956109E+01 0.29411170232E+00 0.27775898825E+01 0.47888827159E+01
 0.57893934504E+01 0.57869672932E+01 0.52153405017E+01 0.46008817653E+01 0.41812798899E+01
 0.40337276797E+01 0.41812798899E+01 0.46008817653E+01 0.52153405017E+01 0.57869672932E+01
 0.57893934504E+01 0.47888827159E+01 0.27775898825E+01 0.29411170232E+00 -.17630956109E+01
 -.17630956109E+01 -.33817777652E+00 0.19095297442E+01 0.40964417794E+01 0.55021169119E+01
 0.58816086423E+01 0.54886796279E+01 0.48409331106E+01 0.43149277005E+01 0.40289330804E+01
 0.40290793888E+01 0.43151524458E+01 0.48409090489E+01 0.54884635090E+01 0.58815909754E+01
 0.55024227962E+01 0.40966245996E+01 0.19091036093E+01 -.33900366382E+00 -.17635224738E+01
 0.29411170232E+00 0.19095297442E+01 0.38120130277E+01 0.52660148196E+01 0.58568576358E+01
 0.56385427622E+01 0.50146940264E+01 0.44179186276E+01 0.40172422426E+01 0.38773178606E+01
 0.40172422592E+01 0.44179004083E+01 0.50146545239E+01 0.56385145924E+01 0.58568721932E+01
 0.52660401838E+01 0.38119682974E+01 0.19093942219E+01 0.29398298102E+00 -.33900366382E+00
 0.27775898825E+01 0.40964417794E+01 0.52660148196E+01 0.58308941784E+01 0.56955301638E+01
 0.51163438564E+01 0.44850853917E+01 0.40034578747E+01 0.37468485448E+01 0.37467461515E+01
 0.40032814477E+01 0.44850460563E+01 0.51164330067E+01 0.56955207185E+01 0.58306984717E+01
 0.52659062992E+01 0.40967371837E+01 0.27781526102E+01 0.19093942219E+01 0.19091036093E+01
 0.47888827159E+01 0.55021169119E+01 0.58568576358E+01 0.56955301638E+01 0.51491367194E+01
 0.45176296206E+01 0.39925488457E+01 0.36528622408E+01 0.35362465765E+01 0.36528670908E+01
 0.39925353831E+01 0.45176191578E+01 0.51491647696E+01 0.56955659344E+01 0.58568557211E+01
 0.55021270746E+01 0.47889755787E+01 0.40967371837E+01 0.38119682974E+01 0.40966245996E+01
 0.57893934504E+01 0.58816086423E+01 0.56385427622E+01 0.51163438564E+01 0.45176296206E+01
 0.39885275932E+01 0.36042127919E+01 0.34048423393E+01 0.34048982971E+01 0.36043070685E+01
 0.39885654047E+01 0.45176526874E+01 0.51164420334E+01 0.56386658707E+01 0.58815878658E+01
 0.57891623316E+01 0.55021270746E+01 0.52659062992E+01 0.52660401838E+01 0.55024227962E+01
 0.57869672932E+01 0.54886796279E+01 0.50146940264E+01 0.44850853917E+01 0.39925488457E+01
 0.36042127919E+01 0.33605295438E+01 0.32781023325E+01 0.33605675218E+01 0.36042472516E+01
 0.39925439799E+01 0.44850541125E+01 0.50146769053E+01 0.54886953487E+01 0.57869897136E+01
 0.58815878658E+01 0.58568557211E+01 0.58306984717E+01 0.58568721932E+01 0.58815909754E+01
 0.52153405017E+01 0.48409331106E+01 0.44179186276E+01 0.40034578747E+01 0.36528622408E+01
 0.34048423393E+01 0.32781023325E+01 0.32781283723E+01 0.34048703994E+01 0.36527997165E+01
 0.40032862944E+01 0.44177573434E+01 0.48409348444E+01 0.52155222614E+01 0.54886953487E+01
 0.56386658707E+01 0.56955659344E+01 0.56955207185E+01 0.56385145924E+01 0.54884635090E+01
 0.46008817653E+01 0.43149277005E+01 0.40172422426E+01 0.37468485448E+01 0.35362465765E+01
 0.34048982971E+01 0.33605675218E+01 0.34048703994E+01 0.35362237024E+01 0.37468464616E+01
 0.40172455679E+01 0.43149279414E+01 0.46008937889E+01 0.48409348444E+01 0.50146769053E+01
 0.51164420334E+01 0.51491647696E+01 0.51164330067E+01 0.50146545239E+01 0.48409090489E+01
 0.41812798899E+01 0.40289330804E+01 0.38773178606E+01 0.37467461515E+01 0.36528670908E+01
 0.36043070685E+01 0.36042472516E+01 0.36527997165E+01 0.37468464616E+01 0.38775630229E+01
 0.40290954369E+01 0.41811980389E+01 0.43149279414E+01 0.44177573434E+01 0.44850541125E+01
 0.45176526874E+01 0.45176191578E+01 0.44850460563E+01 0.44179004083E+01 0.43151524458E+01
 0.40337276797E+01 0.40290793888E+01 0.40172422592E+01 0.40032814477E+01 0.39925353831E+01
 0.39885654047E+01 0.39925439799E+01 0.40032862944E+01 0.40172455679E+01 0.40290954369E+01
 0.40337538853E+01 0.40290954369E+01 0.40172455679E+01 0.40032862944E+01 0.39925439799E+01
 0.39885654047E+01 0.39925353831E+01 0.40032814477E+01 0.40172422592E+01 0.40290793888E+01
 0.41812798899E+01 0.43151524458E+01 0.44179004083E+01 0.44850460563E+01 0.45176191578E+01
 0.45176526874E+01 0.44850541125E+01 0.44177573434E+01 0.43149279414E+01 0.41811980389E+01
 0.40290954369E+01 0.38775630229E+01 0.37468464616E+01 0.36527997165E+01 0.36042472516E+01
 0.36043070685E+01 0.36528670908E+01 0.37467461515E+01 0.38773178606E+01 0.40289330804E+01
 0.46008817653E+01 0.48409090489E+01 0.50146545239E+01 0.51164330067E+01 0.51491647696E+01
 0.51164420334E+01 0.50146769053E+01 0.48409348444E+01 0.46008937889E+01 0.43149279414E+01
 0.40172455679E+01 0.37468464616E+01 0.35362237024E+01 0.34048703994E+01 0.33605675218E+01
 0.34048982971E+01 0.35362465765E+01 0.37468485448E+01 0.40172422426E+01 0.43149277005E+01
 0.52153405017E+01 0.54884635090E+01 0.56385145924E+01 0.56955207185E+01 0.56955659344E+01
 0.56386658707E+01 0.54886953487E+01 0.52155222614E+01 0.48409348444E+01 0.44177573434E+01
 0.40032862944E+01 0.36527997165E+01 0.34048703994E+01 0.32781283723E+01 0.32781023325E+01
 0.34048423393E+01 0.36528622408E+01 0.40034578747E+01 0.44179186276E+01 0.48409331106E+01
 0.57869672932E+01 0.58815909754E+01 0.58568721932E+01 0.58306984717E+01 0.58568557211E+01
 0.58815878658E+01 0.57869897136E+01 0.54886953487E+01 0.50146769053E+01 0.44850541125E+01
 0.39925439799E+01 0.36042472516E+01 0.33605675218E+01 0.32781023325E+01 0.33605295438E+01
 0.36042127919E+01 0.39925488457E+01 0.44850853917E+01 0.50146940264E+01 0.54886796279E+01
 0.57893934504E+01 0.55024227962E+01 0.52660401838E+01 0.52659062992E+01 0.55021270746E+01
 0.57891623316E+01 0.58815878658E+01 0.56386658707E+01 0.51164420334E+01 0.45176526874E+01
 0.39885654047E+01 0.36043070685E+01 0.34048982971E+01 0.34048423393E+01 0.36042127919E+01
 0.39885275932E+01 0.45176296206E+01 0.51163438564E+01 0.56385427622E+01 0.58816086423E+01
 0.47888827159E+01 0.40966245996E+01 0.38119682974E+01 0.40967371837E+01 0.47889755787E+01
 0.55021270746E+01 0.58568557211E+01 0.56955659344E+01 0.51491647696E+01 0.45176191578E+01
 0.39925353831E+01 0.36528670908E+01 0.35362465765E+01 0.36528622408E+01 0.39925488457E+01
 0.45176296206E+01 0.51491367194E+01 0.56955301638E+01 0.58568576358E+01 0.55021169119E+01
 0.27775898825E+01 0.19091036093E+01 0.19093942219E+01 0.27781526102E+01 0.40967371837E+01
 0.52659062992E+01 0.58306984717E+01 0.56955207185E+01 0.51164330067E+01 0.44850460563E+01
 0.40032814477E+01 0.37467461515E+01 0.37468485448E+01 0.40034578747E+01 0.44850853917E+01
 0.51163438564E+01 0.56955301638E+01 0.58308941784E+01 0.52660148196E+01 0.40964417794E+01
 0.29411170232E+00 -.33900366382E+00 0.29398298102E+00 0.19093942219E+01 0.38119682974E+01
 0.52660401838E+01 0.58568721932E+01 0.56385145924E+01 0.50146545239E+01 0.44179004083E+01
 0.40172422592E+01 0.38773178606E+01 0.40172422426E+01 0.44179186276E+01 0.50146940264E+01
 0.56385427622E+01 0.58568576358E+01 0.52660148196E+01 0.38120130277E+01 0.19095297442E+01
 -.17630956109E+01 -.17635224738E+01 -.33900366382E+00 0.19091036093E+01 0.40966245996E+01
 0.55024227962E+01 0.58815909754E+01 0.54884635090E+01 0.48409090489E+01 0.43151524458E+01
 0.40290793888E+01 0.40289330804E+01 0.43149277005E+01 0.48409331106E+01 0.54886796279E+01
 0.58816086423E+01 0.55021169119E+01 0.40964417794E+01 0.19095297442E+01 -.33817777652E+00
 -.17631196612E+01 -.33822293631E+00 0.19095010607E+01 0.40964318929E+01 0.55020990087E+01
 0.58815855918E+01 0.54886780152E+01 0.48409471961E+01 0.43149281811E+01 0.40289242802E+01
 0.40290901381E+01 0.43151781043E+01 0.48409202852E+01 0.54884645250E+01 0.58816110803E+01
 0.55024578691E+01 0.40966441027E+01 0.19091072539E+01 -.33899348825E+00 -.17635150545E+01
 -.33822293631E+00 0.14208232530E+01 0.35100191095E+01 0.51406066675E+01 0.58589343036E+01
 0.57057067159E+01 0.50952938137E+01 0.44917265063E+01 0.40842761458E+01 0.39416863710E+01
 0.40843351278E+01 0.44917057301E+01 0.50952085513E+01 0.57057984148E+01 0.58593035083E+01
 0.51408921168E+01 0.35096965735E+01 0.14198851677E+01 -.33907186582E+00 -.10256459172E+01
 0.19095010607E+01 0.35100191095E+01 0.49829205041E+01 0.57919998376E+01 0.57992128768E+01
 0.52640280641E+01 0.46220200992E+01 0.41248236973E+01 0.38582147940E+01 0.38581097916E+01
 0.41246220391E+01 0.46219428474E+01 0.52641677194E+01 0.57994260491E+01 0.57920628167E+01
 0.49827683081E+01 0.35097839642E+01 0.19093368147E+01 0.87049693554E+00 0.87054829044E+00
 0.40964318929E+01 0.51406066675E+01 0.57919998376E+01 0.58217913253E+01 0.53445543614E+01
 0.47002700598E+01 0.41501010972E+01 0.37904690093E+01 0.36664088515E+01 0.37904619966E+01
 0.41500658328E+01 0.47002114288E+01 0.53444884776E+01 0.58217168280E+01 0.57919677149E+01
 0.51407475695E+01 0.40967734369E+01 0.31431945922E+01 0.27589213561E+01 0.31428799175E+01
 0.55020990087E+01 0.58589343036E+01 0.57992128768E+01 0.53445543614E+01 0.47263669185E+01
 0.41622641281E+01 0.37470599710E+01 0.35301552793E+01 0.35302508589E+01 0.37471947113E+01
 0.41622210597E+01 0.47261935479E+01 0.53444850893E+01 0.57993383468E+01 0.58591199827E+01
 0.55022002413E+01 0.49520154500E+01 0.45514109852E+01 0.45514215425E+01 0.49520068533E+01
 0.58815855918E+01 0.57057067159E+01 0.52640280641E+01 0.47002700598E+01 0.41622641281E+01
 0.37323691230E+01 0.34604663741E+01 0.33681306690E+01 0.34604770905E+01 0.37323567793E+01
 0.41622496979E+01 0.47003289599E+01 0.52641656107E+01 0.57058063335E+01 0.58815226995E+01
 0.58034060650E+01 0.56281675931E+01 0.55425191901E+01 0.56283431494E+01 0.58036070343E+01
 0.54886780152E+01 0.50952938137E+01 0.46220200992E+01 0.41501010972E+01 0.37470599710E+01
 0.34604663741E+01 0.33135917492E+01 0.33135749885E+01 0.34604471316E+01 0.37470716125E+01
 0.41501079371E+01 0.46219710974E+01 0.50952130254E+01 0.54886530237E+01 0.57217198565E+01
 0.58016772806E+01 0.58062523246E+01 0.58062024492E+01 0.58015712078E+01 0.57216495808E+01
 0.48409471961E+01 0.44917265063E+01 0.41248236973E+01 0.37904690093E+01 0.35301552793E+01
 0.33681306690E+01 0.33135749885E+01 0.33681909582E+01 0.35301996719E+01 0.37903958361E+01
 0.41246157769E+01 0.44915202294E+01 0.48409220105E+01 0.51292608114E+01 0.53272040837E+01
 0.54299323769E+01 0.54596141674E+01 0.54297419261E+01 0.53269231832E+01 0.51290666506E+01
 0.43149281811E+01 0.40842761458E+01 0.38582147940E+01 0.36664088515E+01 0.35302508589E+01
 0.34604770905E+01 0.34604471316E+01 0.35301996719E+01 0.36663952368E+01 0.38582390843E+01
 0.40842929649E+01 0.43149209038E+01 0.45203321604E+01 0.46793898477E+01 0.47835689716E+01
 0.48339318466E+01 0.48339136539E+01 0.47835301379E+01 0.46793634246E+01 0.45203337981E+01
 0.40289242802E+01 0.39416863710E+01 0.38581097916E+01 0.37904619966E+01 0.37471947113E+01
 0.37323567793E+01 0.37470716125E+01 0.37903958361E+01 0.38582390843E+01 0.39419336408E+01
 0.40290761464E+01 0.41071650325E+01 0.41677341142E+01 0.42081548913E+01 0.42302597420E+01
 0.42371589641E+01 0.42303085181E+01 0.42082900181E+01 0.41679062975E+01 0.41072207684E+01
 0.40290901381E+01 0.40843351278E+01 0.41246220391E+01 0.41500658328E+01 0.41622210597E+01
 0.41622496979E+01 0.41501079371E+01 0.41246157769E+01 0.40842929649E+01 0.40290761464E+01
 0.39623582562E+01 0.38917895364E+01 0.38276451165E+01 0.37795783870E+01 0.37540950226E+01
 0.37541110335E+01 0.37796058902E+01 0.38276446926E+01 0.38917515046E+01 0.39623236979E+01
 0.43151781043E+01 0.44917057301E+01 0.46219428474E+01 0.47002114288E+01 0.47261935479E+01
 0.47003289599E+01 0.46219710974E+01 0.44915202294E+01 0.43149209038E+01 0.41071650325E+01
 0.38917895364E+01 0.36957425172E+01 0.35422460839E+01 0.34460282065E+01 0.34134921316E+01
 0.34460579280E+01 0.35421874809E+01 0.36955657195E+01 0.38916560840E+01 0.41072520658E+01
 0.48409202852E+01 0.50952085513E+01 0.52641677194E+01 0.53444884776E+01 0.53444850893E+01
 0.52641656107E+01 0.50952130254E+01 0.48409220105E+01 0.45203321604E+01 0.41677341142E+01
 0.38276451165E+01 0.35422460839E+01 0.33409696831E+01 0.32381806924E+01 0.32381950837E+01
 0.33409951216E+01 0.35422581014E+01 0.38276476863E+01 0.41677431094E+01 0.45203410251E+01
 0.54884645250E+01 0.57057984148E+01 0.57994260491E+01 0.58217168280E+01 0.57993383468E+01
 0.57058063335E+01 0.54886530237E+01 0.51292608114E+01 0.46793898477E+01 0.42081548913E+01
 0.37795783870E+01 0.34460282065E+01 0.32381806924E+01 0.31680462357E+01 0.32381294061E+01
 0.34460480254E+01 0.37797286715E+01 0.42083084582E+01 0.46793603723E+01 0.51290497435E+01
 0.58816110803E+01 0.58593035083E+01 0.57920628167E+01 0.57919677149E+01 0.58591199827E+01
 0.58815226995E+01 0.57217198565E+01 0.53272040837E+01 0.47835689716E+01 0.42302597420E+01
 0.37540950226E+01 0.34134921316E+01 0.32381950837E+01 0.32381294061E+01 0.34133793488E+01
 0.37540699111E+01 0.42303169720E+01 0.47835854366E+01 0.53271299988E+01 0.57216645001E+01
 0.55024578691E+01 0.51408921168E+01 0.49827683081E+01 0.51407475695E+01 0.55022002413E+01
 0.58034060650E+01 0.58016772806E+01 0.54299323769E+01 0.48339318466E+01 0.42371589641E+01
 0.37541110335E+01 0.34460579280E+01 0.33409951216E+01 0.34460480254E+01 0.37540699111E+01
 0.42370486619E+01 0.48337688403E+01 0.54298346308E+01 0.58017659908E+01 0.58036556678E+01
 0.40966441027E+01 0.35096965735E+01 0.35097839642E+01 0.40967734369E+01 0.49520154500E+01
 0.56281675931E+01 0.58062523246E+01 0.54596141674E+01 0.48339136539E+01 0.42303085181E+01
 0.37796058902E+01 0.35421874809E+01 0.35422581014E+01 0.37797286715E+01 0.42303169720E+01
 0.48337688403E+01 0.54594732492E+01 0.58062770976E+01 0.56282941124E+01 0.49520354415E+01
 0.19091072539E+01 0.14198851677E+01 0.19093368147E+01 0.31431945922E+01 0.45514109852E+01
 0.55425191901E+01 0.58062024492E+01 0.54297419261E+01 0.47835301379E+01 0.42082900181E+01
 0.38276446926E+01 0.36955657195E+01 0.38276476863E+01 0.42083084582E+01 0.47835854366E+01
 0.54298346308E+01 0.58062770976E+01 0.55424769288E+01 0.45511991466E+01 0.31428863430E+01
 -.33899348825E+00 -.33907186582E+00 0.87049693554E+00 0.27589213561E+01 0.45514215425E+01
 0.56283431494E+01 0.58015712078E+01 0.53269231832E+01 0.46793634246E+01 0.41679062975E+01
 0.38917515046E+01 0.38916560840E+01 0.41677431094E+01 0.46793603723E+01 0.53271299988E+01
 0.58017659908E+01 0.56282941124E+01 0.45511991466E+01 0.27588057198E+01 0.87058035296E+00
 -.17635150545E+01 -.10256459172E+01 0.87054829044E+00 0.31428799175E+01 0.49520068533E+01
 0.58036070343E+01 0.57216495808E+01 0.51290666506E+01 0.45203337981E+01 0.41072207684E+01
 0.39623236979E+01 0.41072520658E+01 0.45203410251E+01 0.51290497435E+01 0.57216645001E+01
 0.58036556678E+01 0.49520354415E+01 0.31428863430E+01 0.87058035296E+00 -.10255985191E+01
 0.29406229787E+00 0.19094665473E+01 0.38119936198E+01 0.52660272621E+01 0.58568502232E+01
 0.56385247485E+01 0.50147102329E+01 0.44179535496E+01 0.40172476850E+01 0.38773082756E+01
 0.40172655086E+01 0.44179414262E+01 0.50146645956E+01 0.56385081883E+01 0.58568976782E+01
 0.52660817956E+01 0.38119734797E+01 0.19093707046E+01 0.29397356864E+00 -.33901294129E+00
 0.19094665473E+01 0.35099898436E+01 0.49829206681E+01 0.57920162910E+01 0.57992186794E+01
 0.52640296554E+01 0.46220380039E+01 0.41248477270E+01 0.38582231710E+01 0.38581124787E+01
 0.41246404303E+01 0.46219661676E+01 0.52641736468E+01 0.57994245047E+01 0.57920749044E+01
 0.49827815605E+01 0.35097728261E+01 0.19093084792E+01 0.87047393250E+00 0.87052610204E+00
 0.38119936198E+01 0.49829206681E+01 0.57493288157E+01 0.58556033776E+01 0.54095371178E+01
 0.47635996704E+01 0.42052664671E+01 0.38388286958E+01 0.37121582696E+01 0.38387841594E+01
 0.42052110080E+01 0.47635835180E+01 0.54095701633E+01 0.58556267125E+01 0.57493006036E+01
 0.49828911075E+01 0.38120280342E+01 0.27588569959E+01 0.23368908029E+01 0.27587929137E+01
 0.52660272621E+01 0.57920162910E+01 0.58556033776E+01 0.54560661718E+01 0.48356016451E+01
 0.42545774305E+01 0.38236224587E+01 0.35975173487E+01 0.35975971152E+01 0.38237596094E+01
 0.42546063156E+01 0.48354915061E+01 0.54559140012E+01 0.58555110220E+01 0.57920582679E+01
 0.52662345089E+01 0.45514953206E+01 0.40489574511E+01 0.40488278028E+01 0.45512222276E+01
 0.58568502232E+01 0.57992186794E+01 0.54095371178E+01 0.48356016451E+01 0.42712220385E+01
 0.38156744710E+01 0.35258546410E+01 0.34271691591E+01 0.35259024216E+01 0.38157027900E+01
 0.42712073963E+01 0.48355882241E+01 0.54095508192E+01 0.57992356250E+01 0.58568607773E+01
 0.56283108079E+01 0.53268159912E+01 0.51918303823E+01 0.53267829663E+01 0.56282840439E+01
 0.56385247485E+01 0.52640296554E+01 0.47635996704E+01 0.42545774305E+01 0.38156744710E+01
 0.35017477461E+01 0.33403068892E+01 0.33402680453E+01 0.35016680697E+01 0.38156343705E+01
 0.42546398911E+01 0.47637486692E+01 0.52641602022E+01 0.56385120875E+01 0.58015393067E+01
 0.57939587582E+01 0.57388688907E+01 0.57389829889E+01 0.57942082578E+01 0.58017306456E+01
 0.50147102329E+01 0.46220380039E+01 0.42052664671E+01 0.38236224587E+01 0.35258546410E+01
 0.33403068892E+01 0.32777612908E+01 0.33403047656E+01 0.35258648598E+01 0.38236271286E+01
 0.42052316015E+01 0.46219791081E+01 0.50146690214E+01 0.53271134083E+01 0.55154855898E+01
 0.55948809938E+01 0.56131707100E+01 0.55949233883E+01 0.55155231052E+01 0.53271364522E+01
 0.44179535496E+01 0.41248477270E+01 0.38388286958E+01 0.35975173487E+01 0.34271691591E+01
 0.33402680453E+01 0.33403047656E+01 0.34272525603E+01 0.35975623049E+01 0.38387380680E+01
 0.41246272640E+01 0.44177538960E+01 0.46793747447E+01 0.48814918561E+01 0.50127076500E+01
 0.50742570764E+01 0.50741719727E+01 0.50125112685E+01 0.48813349606E+01 0.46793972206E+01
 0.40172476850E+01 0.38582231710E+01 0.37121582696E+01 0.35975971152E+01 0.35259024216E+01
 0.35016680697E+01 0.35258648598E+01 0.35975623049E+01 0.37121527076E+01 0.38582320110E+01
 0.40172445676E+01 0.41677280975E+01 0.42918948544E+01 0.43802358992E+01 0.44313785142E+01
 0.44478915516E+01 0.44313537530E+01 0.43802116734E+01 0.42918928443E+01 0.41677405835E+01
 0.38773082756E+01 0.38581124787E+01 0.38387841594E+01 0.38237596094E+01 0.38157027900E+01
 0.38156343705E+01 0.38236271286E+01 0.38387380680E+01 0.38582320110E+01 0.38775146315E+01
 0.38917539736E+01 0.38983129114E+01 0.38980337739E+01 0.38943923917E+01 0.38913521137E+01
 0.38913987253E+01 0.38945176614E+01 0.38981694754E+01 0.38983452535E+01 0.38916244789E+01
 0.40172655086E+01 0.41246404303E+01 0.42052110080E+01 0.42546063156E+01 0.42712073963E+01
 0.42546398911E+01 0.42052316015E+01 0.41246272640E+01 0.40172445676E+01 0.38917539736E+01
 0.37612837056E+01 0.36413734475E+01 0.35462924574E+01 0.34859695516E+01 0.34654013116E+01
 0.34859689630E+01 0.35462987078E+01 0.36413820228E+01 0.37612860731E+01 0.38917604779E+01
 0.44179414262E+01 0.46219661676E+01 0.47635835180E+01 0.48354915061E+01 0.48355882241E+01
 0.47637486692E+01 0.46219791081E+01 0.44177538960E+01 0.41677280975E+01 0.38983129114E+01
 0.36413734475E+01 0.34266528610E+01 0.32752189068E+01 0.31977738753E+01 0.31977718575E+01
 0.32751804231E+01 0.34265541800E+01 0.36412947781E+01 0.38983819340E+01 0.41679456119E+01
 0.50146645956E+01 0.52641736468E+01 0.54095701633E+01 0.54559140012E+01 0.54095508192E+01
 0.52641602022E+01 0.50146690214E+01 0.46793747447E+01 0.42918948544E+01 0.38980337739E+01
 0.35462924574E+01 0.32752189068E+01 0.31070976338E+01 0.30505048230E+01 0.31071214686E+01
 0.32752410131E+01 0.35462977214E+01 0.38980303098E+01 0.42918882150E+01 0.46793633481E+01
 0.56385081883E+01 0.57994245047E+01 0.58556267125E+01 0.58555110220E+01 0.57992356250E+01
 0.56385120875E+01 0.53271134083E+01 0.48814918561E+01 0.43802358992E+01 0.38943923917E+01
 0.34859695516E+01 0.31977738753E+01 0.30505048230E+01 0.30504686542E+01 0.31977419548E+01
 0.34860472475E+01 0.38945250782E+01 0.43802345526E+01 0.48812890033E+01 0.53268940529E+01
 0.58568976782E+01 0.57920749044E+01 0.57493006036E+01 0.57920582679E+01 0.58568607773E+01
 0.58015393067E+01 0.55154855898E+01 0.50127076500E+01 0.44313785142E+01 0.38913521137E+01
 0.34654013116E+01 0.31977718575E+01 0.31071214686E+01 0.31977419548E+01 0.34653655685E+01
 0.38913284028E+01 0.44313670407E+01 0.50127133091E+01 0.55155138267E+01 0.58015834780E+01
 0.52660817956E+01 0.49827815605E+01 0.49828911075E+01 0.52662345089E+01 0.56283108079E+01
 0.57939587582E+01 0.55948809938E+01 0.50742570764E+01 0.44478915516E+01 0.38913987253E+01
 0.34859689630E+01 0.32751804231E+01 0.32752410131E+01 0.34860472475E+01 0.38913284028E+01
 0.44476992769E+01 0.50741773891E+01 0.55950626674E+01 0.57942359156E+01 0.56283876959E+01
 0.38119734797E+01 0.35097728261E+01 0.38120280342E+01 0.45514953206E+01 0.53268159912E+01
 0.57388688907E+01 0.56131707100E+01 0.50741719727E+01 0.44313537530E+01 0.38945176614E+01
 0.35462987078E+01 0.34265541800E+01 0.35462977214E+01 0.38945250782E+01 0.44313670407E+01
 0.50741773891E+01 0.56131617944E+01 0.57388464389E+01 0.53267703714E+01 0.45514284147E+01
 0.19093707046E+01 0.19093084792E+01 0.27588569959E+01 0.40489574511E+01 0.51918303823E+01
 0.57389829889E+01 0.55949233883E+01 0.50125112685E+01 0.43802116734E+01 0.38981694754E+01
 0.36413820228E+01 0.36412947781E+01 0.38980303098E+01 0.43802345526E+01 0.50127133091E+01
 0.55950626674E+01 0.57388464389E+01 0.51915223701E+01 0.40487764793E+01 0.27588976732E+01
 0.29397356864E+00 0.87047393250E+00 0.23368908029E+01 0.40488278028E+01 0.53267829663E+01
 0.57942082578E+01 0.55155231052E+01 0.48813349606E+01 0.42918928443E+01 0.38983452535E+01
 0.37612860731E+01 0.38983819340E+01 0.42918882150E+01 0.48812890033E+01 0.55155138267E+01
 0.57942359156E+01 0.53267703714E+01 0.40487764793E+01 0.23368808073E+01 0.87050729643E+00
 -.33901294129E+00 0.87052610204E+00 0.27587929137E+01 0.45512222276E+01 0.56282840439E+01
 0.58017306456E+01 0.53271364522E+01 0.46793972206E+01 0.41677405835E+01 0.38916244789E+01
 0.38917604779E+01 0.41679456119E+01 0.46793633481E+01 0.53268940529E+01 0.58015834780E+01
 0.56283876959E+01 0.45514284147E+01 0.27588976732E+01 0.87050729643E+00 -.33904164153E+00
 0.27775617594E+01 0.40964081582E+01 0.52660304111E+01 0.58309308331E+01 0.56955290417E+01
 0.51163265280E+01 0.44851053846E+01 0.40034912978E+01 0.37468419073E+01 0.37467241372E+01
 0.40032980135E+01 0.44850765530E+01 0.51164235066E+01 0.56954961516E+01 0.58307129194E+01
 0.52659339065E+01 0.40967211360E+01 0.27781148814E+01 0.19093890545E+01 0.19091106872E+01
 0.40964081582E+01 0.51405959583E+01 0.57920290880E+01 0.58218314962E+01 0.53445667317E+01
 0.47002728219E+01 0.41501270950E+01 0.37904989797E+01 0.36664110310E+01 0.37904564793E+01
 0.41500842013E+01 0.47002328723E+01 0.53444807462E+01 0.58216999897E+01 0.57919723300E+01
 0.51407501737E+01 0.40967391364E+01 0.31431446057E+01 0.27588943410E+01 0.31428660176E+01
 0.52660304111E+01 0.57920290880E+01 0.58556311445E+01 0.54560925750E+01 0.48356119620E+01
 0.42545826826E+01 0.38236364941E+01 0.35975305877E+01 0.35975971380E+01 0.38237563930E+01
 0.42546119028E+01 0.48354953892E+01 0.54559036816E+01 0.58554963104E+01 0.57920503141E+01
 0.52662217990E+01 0.45514662160E+01 0.40489264819E+01 0.40488143026E+01 0.45512222601E+01
 0.58309308331E+01 0.58218314962E+01 0.54560925750E+01 0.48815475067E+01 0.43086020573E+01
 0.38445118218E+01 0.35486365999E+01 0.34477539738E+01 0.35486574548E+01 0.38446032243E+01
 0.43087375958E+01 0.48815670867E+01 0.54558723883E+01 0.58215115518E+01 0.58308434749E+01
 0.55427963243E+01 0.51919207065E+01 0.50376074429E+01 0.51915842565E+01 0.55425216160E+01
 0.56955290417E+01 0.53445667317E+01 0.48356119620E+01 0.43086020573E+01 0.38515979784E+01
 0.35236625343E+01 0.33547037137E+01 0.33546653354E+01 0.35236266953E+01 0.38516786796E+01
 0.43087600750E+01 0.48356677143E+01 0.53444305705E+01 0.56953338819E+01 0.58062148930E+01
 0.57389509568E+01 0.56442303029E+01 0.56441622931E+01 0.57388579660E+01 0.58062730141E+01
 0.51163265280E+01 0.47002728219E+01 0.42545826826E+01 0.38445118218E+01 0.35236625343E+01
 0.33233650513E+01 0.32557709960E+01 0.33233308737E+01 0.35236280781E+01 0.38445178663E+01
 0.42546577982E+01 0.47004063130E+01 0.51164235856E+01 0.54297328425E+01 0.55947867154E+01
 0.56461218273E+01 0.56522301957E+01 0.56463575985E+01 0.55950352553E+01 0.54298020698E+01
 0.44851053846E+01 0.41501270950E+01 0.38236364941E+01 0.35486365999E+01 0.33547037137E+01
 0.32557709960E+01 0.32557614420E+01 0.33546963432E+01 0.35486516021E+01 0.38236514317E+01
 0.41501207617E+01 0.44850914111E+01 0.47835661609E+01 0.50126385021E+01 0.51551787945E+01
 0.52178450031E+01 0.52179062879E+01 0.51553001696E+01 0.50127215695E+01 0.47835946595E+01
 0.40034912978E+01 0.37904989797E+01 0.35975305877E+01 0.34477539738E+01 0.33546653354E+01
 0.33233308737E+01 0.33546963432E+01 0.34478182352E+01 0.35975734054E+01 0.37904341263E+01
 0.40033175454E+01 0.42081802011E+01 0.43802493069E+01 0.45047176367E+01 0.45777016435E+01
 0.46014023435E+01 0.45775883095E+01 0.45046076424E+01 0.43802702510E+01 0.42083400132E+01
 0.37468419073E+01 0.36664110310E+01 0.35975971380E+01 0.35486574548E+01 0.35236266953E+01
 0.35236280781E+01 0.35486516021E+01 0.35975734054E+01 0.36663832674E+01 0.37468349666E+01
 0.38276501633E+01 0.38980463728E+01 0.39511741862E+01 0.39851360699E+01 0.40012698095E+01
 0.40012674071E+01 0.39851281453E+01 0.39511577162E+01 0.38980220199E+01 0.38276324324E+01
 0.37467241372E+01 0.37904564793E+01 0.38237563930E+01 0.38446032243E+01 0.38516786796E+01
 0.38445178663E+01 0.38236514317E+01 0.37904341263E+01 0.37468349666E+01 0.36956978284E+01
 0.36413571074E+01 0.35897405664E+01 0.35473522719E+01 0.35196785317E+01 0.35101145844E+01
 0.35197535204E+01 0.35474487971E+01 0.35897646938E+01 0.36412525696E+01 0.36955241016E+01
 0.40032980135E+01 0.41500842013E+01 0.42546119028E+01 0.43087375958E+01 0.43087600750E+01
 0.42546577982E+01 0.41501207617E+01 0.40033175454E+01 0.38276501633E+01 0.36413571074E+01
 0.34651077121E+01 0.33179963534E+01 0.32139162109E+01 0.31604540010E+01 0.31604428610E+01
 0.32139058605E+01 0.33180163989E+01 0.34651450621E+01 0.36413780514E+01 0.38276466255E+01
 0.44850765530E+01 0.47002328723E+01 0.48354953892E+01 0.48815670867E+01 0.48356677143E+01
 0.47004063130E+01 0.44850914111E+01 0.42081802011E+01 0.38980463728E+01 0.35897405664E+01
 0.33179963534E+01 0.31098173004E+01 0.29808990648E+01 0.29374838346E+01 0.29808758266E+01
 0.31097705310E+01 0.33179655373E+01 0.35897938597E+01 0.38981940524E+01 0.42083157097E+01
 0.51164235066E+01 0.53444807462E+01 0.54559036816E+01 0.54558723883E+01 0.53444305705E+01
 0.51164235856E+01 0.47835661609E+01 0.43802493069E+01 0.39511741862E+01 0.35473522719E+01
 0.32139162109E+01 0.29808990648E+01 0.28623701595E+01 0.28623739106E+01 0.29809089576E+01
 0.32139296631E+01 0.35473598357E+01 0.39511550323E+01 0.43801930410E+01 0.47835103409E+01
 0.56954961516E+01 0.58216999897E+01 0.58554963104E+01 0.58215115518E+01 0.56953338819E+01
 0.54297328425E+01 0.50126385021E+01 0.45047176367E+01 0.39851360699E+01 0.35196785317E+01
 0.31604540010E+01 0.29374838346E+01 0.28623739106E+01 0.29374844066E+01 0.31604883243E+01
 0.35197321295E+01 0.39851199822E+01 0.45045730190E+01 0.50124593302E+01 0.54296972389E+01
 0.58307129194E+01 0.57919723300E+01 0.57920503141E+01 0.58308434749E+01 0.58062148930E+01
 0.55947867154E+01 0.51551787945E+01 0.45777016435E+01 0.40012698095E+01 0.35101145844E+01
 0.31604428610E+01 0.29808758266E+01 0.29809089576E+01 0.31604883243E+01 0.35100925731E+01
 0.40012002128E+01 0.45776992527E+01 0.51552937062E+01 0.55949096595E+01 0.58062032162E+01
 0.52659339065E+01 0.51407501737E+01 0.52662217990E+01 0.55427963243E+01 0.57389509568E+01
 0.56461218273E+01 0.52178450031E+01 0.46014023435E+01 0.40012674071E+01 0.35197535204E+01
 0.32139058605E+01 0.31097705310E+01 0.32139296631E+01 0.35197321295E+01 0.40012002128E+01
 0.46014174053E+01 0.52180414096E+01 0.56463769819E+01 0.57389973009E+01 0.55425463850E+01
 0.40967211360E+01 0.40967391364E+01 0.45514662160E+01 0.51919207065E+01 0.56442303029E+01
 0.56522301957E+01 0.52179062879E+01 0.45775883095E+01 0.39851281453E+01 0.35474487971E+01
 0.33180163989E+01 0.33179655373E+01 0.35473598357E+01 0.39851199822E+01 0.45776992527E+01
 0.52180414096E+01 0.56522646177E+01 0.56441442105E+01 0.51918024880E+01 0.45513963961E+01
 0.27781148814E+01 0.31431446057E+01 0.40489264819E+01 0.50376074429E+01 0.56441622931E+01
 0.56463575985E+01 0.51553001696E+01 0.45046076424E+01 0.39511577162E+01 0.35897646938E+01
 0.34651450621E+01 0.35897938597E+01 0.39511550323E+01 0.45045730190E+01 0.51552937062E+01
 0.56463769819E+01 0.56441442105E+01 0.50375528033E+01 0.40489022789E+01 0.31431597206E+01
 0.19093890545E+01 0.27588943410E+01 0.40488143026E+01 0.51915842565E+01 0.57388579660E+01
 0.55950352553E+01 0.50127215695E+01 0.43802702510E+01 0.38980220199E+01 0.36412525696E+01
 0.36413780514E+01 0.38981940524E+01 0.43801930410E+01 0.50124593302E+01 0.55949096595E+01
 0.57389973009E+01 0.51918024880E+01 0.40489022789E+01 0.27588535520E+01 0.19093520686E+01
 0.19091106872E+01 0.31428660176E+01 0.45512222601E+01 0.55425216160E+01 0.58062730141E+01
 0.54298020698E+01 0.47835946595E+01 0.42083400132E+01 0.38276324324E+01 0.36955241016E+01
 0.38276466255E+01 0.42083157097E+01 0.47835103409E+01 0.54296972389E+01 0.58062032162E+01
 0.55425463850E+01 0.45513963961E+01 0.31431597206E+01 0.19093520686E+01 0.14199301021E+01
 0.47888781679E+01 0.55020982842E+01 0.58568736543E+01 0.56955512909E+01 0.51491150887E+01
 0.45175968430E+01 0.39925551614E+01 0.36528780095E+01 0.35362228810E+01 0.36528343995E+01
 0.39925432475E+01 0.45176377855E+01 0.51491454346E+01 0.56955394411E+01 0.58568719856E+01
 0.55021565356E+01 0.47889692630E+01 0.40967247315E+01 0.38119973592E+01 0.40966626572E+01
 0.55020982842E+01 0.58589364821E+01 0.57992438203E+01 0.53445831675E+01 0.47263604687E+01
 0.41622504865E+01 0.37470734646E+01 0.35301706742E+01 0.35302360668E+01 0.37471759120E+01