    1    1    1    1
  0.1482975E+02  0.2757716E-09  0.2757716E-09  0.2757716E-09  0.5000000E-15
   1.0000000000000000E-004
  CAR 
 fcc Si                                  
      4    286      8

  0.3742002E-15  0.3742002E-15  0.3742002E-15  0.1079797E-03
    1       -4.378488   1.000000
    2       20.694383   0.000000
    3       20.694562   0.000000
    4       20.694562   0.000000
    5       21.770908   0.000000
    6       21.771023   0.000000
    7       21.771023   0.000000
    8       26.977697   0.000000

  0.4761905E-01  0.3712308E-15  0.3712308E-15  0.8638376E-03
    1       -4.313270   1.000000
    2       19.448876   0.000000
    3       20.341806   0.000000
    4       20.341972   0.000000
    5       22.238927   0.000000
    6       22.239040   0.000000
    7       22.468990   0.000000
    8       27.536065   0.000000

  0.9523810E-01  0.3816392E-15  0.3816392E-15  0.8638376E-03
    1       -4.118504   1.000000
    2       17.543569   0.000000
    3       19.794163   0.000000
    4       19.794330   0.000000
    5       22.877126   0.000000
    6       22.999333   0.000000
    7       22.999536   0.000000
    8       27.544571   0.000000

  0.1428571E+00  0.3747003E-15  0.3747003E-15  0.8638376E-03
    1       -3.794346   1.000000
    2       15.541886   0.000000
    3       19.298258   0.000000
    4       19.298428   0.000000
    5       22.947848   0.000000
    6       23.697728   0.000000
    7       23.698164   0.000000
    8       26.867276   0.000000

  0.1904762E+00  0.3747003E-15  0.3747003E-15  0.8638376E-03
    1       -3.341533   1.000000
    2       13.547767   0.000000
    3       18.891056   0.000000
    4       18.891229   0.000000
    5       22.883230   0.000000
    6       23.882911   0.000000
    7       23.883619   0.000000
    8       26.817023   0.000000

  0.2380952E+00  0.3885781E-15  0.3885781E-15  0.8638376E-03
    1       -2.760977   1.000000
    2       11.616173  -0.002817
    3       18.579777   0.000000
    4       18.579950   0.000000
    5       22.801165   0.000000
    6       23.393403   0.000000
    7       23.394130   0.000000
    8       27.586382   0.000000

  0.2857143E+00  0.3608225E-15  0.3608225E-15  0.8638376E-03
    1       -2.053964   1.000000
    2        9.767488   0.577465
    3       18.363176   0.000000
    4       18.363347   0.000000
    5       22.689078   0.000000
    6       22.689740   0.000000
    7       22.749141   0.000000
    8       27.798285   0.000000

  0.3333333E+00  0.3885781E-15  0.3885781E-15  0.8638376E-03
    1       -1.221389   1.000000
    2        8.015057   1.000000
    3       18.238113   0.000000
    4       18.238264   0.000000
    5       22.002699   0.000000
    6       22.003262   0.000000
    7       22.770467   0.000000
    8       27.008520   0.000000

  0.3809524E+00  0.3608225E-15  0.3608225E-15  0.8638376E-03
    1       -0.267055   1.000000
    2        6.365483   1.000000
    3       18.182093   0.000000
    4       18.182232   0.000000
    5       21.420920   0.000000
    6       21.421479   0.000000
    7       22.831177   0.000000
    8       26.340038   0.000000

  0.4285714E+00  0.3885781E-15  0.3885781E-15  0.8638376E-03
    1        0.801271   1.000000
    2        4.830762   1.000000
    3       18.175902   0.000000
    4       18.176026   0.000000
    5       20.993511   0.000000
    6       20.994076   0.000000
    7       22.906278   0.000000
    8       25.837877   0.000000

  0.4761905E+00  0.3885781E-15  0.3885781E-15  0.8638376E-03
    1        1.941478   1.000000
    2        3.457355   1.000000
    3       18.186946   0.000000
    4       18.187061   0.000000
    5       20.763957   0.000000
    6       20.764527   0.000000
    7       22.970403   0.000000
    8       25.560533   0.000000

  0.4761905E-01  0.4761905E-01  0.3742002E-15  0.6478782E-03
    1       -4.291531   1.000000
    2       19.689931   0.000000
    3       19.690048   0.000000
    4       20.485678   0.000000
    5       21.292747   0.000000
    6       22.932929   0.000000
    7       22.932941   0.000000
    8       27.683049   0.000000

  0.9523810E-01  0.4761905E-01  0.3712308E-15  0.2591513E-02
    1       -4.140098   1.000000
    2       18.200123   0.000000
    3       19.068627   0.000000
    4       20.262468   0.000000
    5       21.438553   0.000000
    6       23.535457   0.000000
    7       23.729391   0.000000
    8       26.680710   0.000000

  0.1428571E+00  0.4761905E-01  0.3747003E-15  0.2591513E-02
    1       -3.859047   1.000000
    2       16.248057   0.000000
    3       18.533478   0.000000
    4       19.808596   0.000000
    5       22.101964   0.000000
    6       23.794075   0.000000
    7       24.493322   0.000000
    8       25.764411   0.000000

  0.1904762E+00  0.4761905E-01  0.3747003E-15  0.2591513E-02
    1       -3.449168   1.000000
    2       14.251486   0.000000
    3       18.098050   0.000000
    4       19.373142   0.000000
    5       22.503101   0.000000
    6       23.771009   0.000000
    7       24.882494   0.000000
    8       25.361336   0.000000

  0.2380952E+00  0.4761905E-01  0.3747003E-15  0.2591513E-02
    1       -2.911188   1.000000
    2       12.302709   0.000000
    3       17.767379   0.000000
    4       19.004496   0.000000
    5       22.320434   0.000000
    6       23.525169   0.000000
    7       24.568711   0.000000
    8       25.936152   0.000000

  0.2857143E+00  0.4761905E-01  0.3885781E-15  0.2591513E-02
    1       -2.246360   1.000000
    2       10.425910   0.111576
    3       17.541334   0.000000
    4       18.701352   0.000000
    5       21.727462   0.000000
    6       23.375764   0.000000
    7       23.878990   0.000000
    8       26.986891   0.000000

  0.3333333E+00  0.4761905E-01  0.3608225E-15  0.2591513E-02
    1       -1.455903   1.000000
    2        8.640507   1.059623
    3       17.421857   0.000000
    4       18.445562   0.000000
    5       21.115134   0.000000
    6       23.143279   0.000000
    7       23.330082   0.000000
    8       27.587688   0.000000

  0.3809524E+00  0.4761905E-01  0.3608225E-15  0.2591513E-02
    1       -0.541636   1.000000
    2        6.956648   1.000000
    3       17.403205   0.000000
    4       18.205446   0.000000
    5       20.653174   0.000000
    6       22.457293   0.000000
    7       23.355266   0.000000
    8       27.050500   0.000000

  0.4285714E+00  0.4761905E-01  0.3608225E-15  0.2591513E-02
    1        0.489830   1.000000
    2        5.382693   1.000000
    3       17.481134   0.000000
    4       17.946974   0.000000
    5       20.407132   0.000000
    6       21.884291   0.000000
    7       23.396718   0.000000
    8       26.543961   0.000000

  0.4761905E+00  0.4761905E-01  0.3885781E-15  0.2591513E-02
    1        1.619939   1.000000
    2        3.941776   1.000000
    3       17.645732   0.000000
    4       17.666434   0.000000
    5       20.385190   0.000000
    6       21.435382   0.000000
    7       23.426282   0.000000
    8       26.230285   0.000000

 -0.4761905E+00  0.4761905E-01  0.3330669E-15  0.2591513E-02
    1        2.311038   1.000000
    2        3.173046   1.000000
    3       17.400341   0.000000
    4       17.883493   0.000000
    5       20.589546   0.000000
    6       21.145758   0.000000
    7       23.415098   0.000000
    8       26.168511   0.000000

 -0.4285714E+00  0.4761905E-01  0.3885781E-15  0.2591513E-02
    1        1.235787   1.000000
    2        4.403574   1.000000
    3       17.183423   0.000000
    4       18.161021   0.000000
    5       20.950861   0.000000
    6       21.009462   0.000000
    7       23.342166   0.000000
    8       26.367463   0.000000

 -0.3809524E+00  0.4761905E-01  0.3885781E-15  0.2591513E-02
    1        0.133514   1.000000
    2        5.894312   1.000000
    3       17.045407   0.000000
    4       18.452755   0.000000
    5       21.086035   0.000000
    6       21.465419   0.000000
    7       23.257614   0.000000
    8       26.786989   0.000000

 -0.3333333E+00  0.4761905E-01  0.3885781E-15  0.2591513E-02
    1       -0.860036   1.000000
    2        7.505979   1.000000
    3       16.994921   0.000000
    4       18.733322   0.000000
    5       21.386571   0.000000
    6       22.104751   0.000000
    7       23.179659   0.000000
    8       27.369556   0.000000

 -0.2857143E+00  0.4761905E-01  0.3885781E-15  0.2591513E-02
    1       -1.733083   1.000000
    2        9.224870   0.947576
    3       17.042943   0.000000
    4       19.007327   0.000000
    5       21.882546   0.000000
    6       22.830510   0.000000
    7       23.148505   0.000000
    8       28.003186   0.000000

 -0.2380952E+00  0.4761905E-01  0.3885781E-15  0.2591513E-02
    1       -2.482001   1.000000
    2       11.041564  -0.061319
    3       17.196262   0.000000
    4       19.303155   0.000000
    5       22.508215   0.000000
    6       23.162575   0.000000
    7       23.623842   0.000000
    8       26.974046   0.000000

 -0.1904762E+00  0.4761905E-01  0.3608225E-15  0.2591513E-02
    1       -3.104681   1.000000
    2       12.944428   0.000000
    3       17.455683   0.000000
    4       19.645148   0.000000
    5       23.079151   0.000000
    6       23.205773   0.000000
    7       24.330328   0.000000
    8       26.007333   0.000000

 -0.1428571E+00  0.4761905E-01  0.3747003E-15  0.2591513E-02
    1       -3.600078   1.000000
    2       14.912857   0.000000
    3       17.820046   0.000000
    4       20.045843   0.000000
    5       23.090206   0.000000
    6       23.218143   0.000000
    7       24.568358   0.000000
    8       25.840502   0.000000

 -0.9523810E-01  0.4761905E-01  0.3885781E-15  0.2591513E-02
    1       -3.967084   1.000000
    2       16.911614   0.000000
    3       18.287070   0.000000
    4       20.480097   0.000000
    5       22.492708   0.000000
    6       23.100393   0.000000
    7       24.115265   0.000000
    8       26.494674   0.000000

 -0.4761905E-01  0.4761905E-01  0.3816392E-15  0.1295756E-02
    1       -4.205000   1.000000
    2       18.800674   0.000000
    3       18.878779   0.000000
    4       20.740106   0.000000
    5       21.964669   0.000000
    6       22.745841   0.000000
    7       23.363729   0.000000
    8       27.431901   0.000000

  0.9523810E-01  0.9523810E-01  0.3742002E-15  0.6478782E-03
    1       -4.031899   1.000000
    2       18.404399   0.000000
    3       18.404503   0.000000
    4       19.904078   0.000000
    5       20.203870   0.000000
    6       24.542000   0.000000
    7       24.542018   0.000000
    8       25.515703   0.000000

  0.1428571E+00  0.9523810E-01  0.3712308E-15  0.2591513E-02
    1       -3.794197   1.000000
    2       16.968336   0.000000
    3       17.832005   0.000000
    4       19.526826   0.000000
    5       20.373920   0.000000
    6       24.395908   0.000000
    7       25.127316   0.000000
    8       25.355218   0.000000

  0.1904762E+00  0.9523810E-01  0.3816392E-15  0.2591513E-02
    1       -3.427556   1.000000
    2       15.035525   0.000000
    3       17.360758   0.000000
    4       19.052128   0.000000
    5       20.962148   0.000000
    6       23.556189   0.000000
    7       25.323294   0.000000
    8       25.916528   0.000000

  0.2380952E+00  0.9523810E-01  0.3747003E-15  0.2591513E-02
    1       -2.932493   1.000000
    2       13.088031   0.000000
    3       16.998967   0.000000
    4       18.615993   0.000000
    5       20.991357   0.000000
    6       23.550234   0.000000
    7       25.472725   0.000000
    8       25.829486   0.000000

  0.2857143E+00  0.9523810E-01  0.3747003E-15  0.2591513E-02
    1       -2.310273   1.000000
    2       11.193382  -0.045534
    3       16.746027   0.000000
    4       18.200717   0.000000
    5       20.470898   0.000000
    6       24.078648   0.000000
    7       25.226283   0.000000
    8       25.834394   0.000000

  0.3333333E+00  0.9523810E-01  0.3885781E-15  0.2591513E-02
    1       -1.561877   1.000000
    2        9.381803   0.852431
    3       16.602906   0.000000
    4       17.775012   0.000000
    5       19.959541   0.000000
    6       24.428740   0.000000
    7       24.504947   0.000000
    8       26.711462   0.000000

  0.3809524E+00  0.9523810E-01  0.3885781E-15  0.2591513E-02
    1       -0.689189   1.000000
    2        7.666442   1.000000
    3       16.568110   0.000000
    4       17.311771   0.000000
    5       19.632409   0.000000
    6       23.798239   0.000000
    7       24.561836   0.000000
    8       27.823217   0.000000

  0.4285714E+00  0.9523810E-01  0.3608225E-15  0.2591513E-02
    1        0.303270   1.000000
    2        6.057014   1.000000
    3       16.640366   0.000000
    4       16.828618   0.000000
    5       19.535032   0.000000
    6       23.176337   0.000000
    7       24.604726   0.000000
    8       27.973962   0.000000

  0.4761905E+00  0.9523810E-01  0.3608225E-15  0.2591513E-02
    1        1.405102   1.000000
    2        4.567657   1.000000
    3       16.365874   0.000000
    4       16.812564   0.000000
    5       19.624129   0.000000
    6       22.626076   0.000000
    7       24.574739   0.000000
    8       27.739428   0.000000

 -0.4761905E+00  0.9523810E-01  0.3330669E-15  0.2591513E-02
    1        2.481144   1.000000
    2        3.336219   1.000000
    3       15.964885   0.000000
    4       17.088530   0.000000
    5       19.884518   0.000000
    6       22.215588   0.000000
    7       24.489607   0.000000
    8       27.692709   0.000000

 -0.4285714E+00  0.9523810E-01  0.2775558E-15  0.2591513E-02
    1        1.788800   1.000000
    2        4.106080   1.000000
    3       15.649147   0.000000
    4       17.456447   0.000000
    5       20.293989   0.000000
    6       21.934319   0.000000
    7       24.364253   0.000000
    8       27.874400   0.000000

 -0.3809524E+00  0.9523810E-01  0.3608225E-15  0.2591513E-02
    1        0.659506   1.000000
    2        5.545696   1.000000
    3       15.430304   0.000000
    4       17.907564   0.000000
    5       20.835925   0.000000
    6       21.801645   0.000000
    7       24.231228   0.000000
    8       28.223582   0.000000

 -0.3333333E+00  0.9523810E-01  0.3885781E-15  0.2591513E-02
    1       -0.371483   1.000000
    2        7.117229   1.000000
    3       15.316347   0.000000
    4       18.413853   0.000000
    5       21.479563   0.000000
    6       21.811077   0.000000
    7       24.115029   0.000000
    8       28.669141   0.000000

 -0.2857143E+00  0.9523810E-01  0.3885781E-15  0.2591513E-02
    1       -1.284719   1.000000
    2        8.797637   1.072765
    3       15.309990   0.000000
    4       18.951161   0.000000
    5       21.990996   0.000000
    6       22.227313   0.000000
    7       24.024348   0.000000
    8       27.849682   0.000000

 -0.2380952E+00  0.9523810E-01  0.3885781E-15  0.2591513E-02
    1       -2.074921   1.000000
    2       10.577929   0.025236
    3       15.417320   0.000000
    4       19.493688   0.000000
    5       22.343594   0.000000
    6       23.073187   0.000000
    7       23.970952   0.000000
    8       26.481943   0.000000

 -0.1904762E+00  0.9523810E-01  0.3608225E-15  0.2591513E-02
    1       -2.739258   1.000000
    2       12.444258   0.000000
    3       15.641873   0.000000
    4       20.009545   0.000000
    5       22.777842   0.000000
    6       23.879630   0.000000
    7       23.971574   0.000000
    8       25.355588   0.000000

 -0.1428571E+00  0.9523810E-01  0.3747003E-15  0.2591513E-02
    1       -3.276785   1.000000
    2       14.371725   0.000000
    3       15.979910   0.000000
    4       20.474165   0.000000
    5       22.891966   0.000000
    6       23.796365   0.000000
    7       24.627233   0.000000
    8       24.937585   0.000000

 -0.9523810E-01  0.9523810E-01  0.3747003E-15  0.1295756E-02
    1       -3.686372   1.000000
    2       16.204862   0.000000
    3       16.555979   0.000000
    4       20.754601   0.000000
    5       22.467100   0.000000
    6       23.518465   0.000000
    7       24.706769   0.000000
    8       25.520904   0.000000

  0.1428571E+00  0.1428571E+00  0.3742002E-15  0.6478782E-03
    1       -3.599932   1.000000
    2       17.221663   0.000000
    3       17.221761   0.000000
    4       19.019149   0.000000
    5       19.022441   0.000000
    6       23.089264   0.000000
    7       26.233246   0.000000
    8       26.233286   0.000000

  0.1904762E+00  0.1428571E+00  0.3712308E-15  0.2591513E-02
    1       -3.276551   1.000000
    2       15.839577   0.000000
    3       16.716300   0.000000
    4       18.479993   0.000000
    5       19.229277   0.000000
    6       22.104463   0.000000
    7       26.829200   0.000000
    8       26.972884   0.000000

  0.2380952E+00  0.1428571E+00  0.3816392E-15  0.2591513E-02
    1       -2.824788   1.000000
    2       13.954313   0.000000
    3       16.319102   0.000000
    4       17.932330   0.000000
    5       19.536141   0.000000
    6       21.822049   0.000000
    7       27.051022   0.000000
    8       27.146869   0.000000

  0.2857143E+00  0.1428571E+00  0.3885781E-15  0.2591513E-02
    1       -2.245582   1.000000
    2       12.063265   0.000000
    3       16.031831   0.000000
    4       17.353928   0.000000
    5       19.250626   0.000000
    6       22.514514   0.000000
    7       26.678177   0.000000
    8       27.114692   0.000000

  0.3333333E+00  0.1428571E+00  0.3747003E-15  0.2591513E-02
    1       -1.539783   1.000000
    2       10.233167   0.234707
    3       15.856485   0.000000
    4       16.722761   0.000000
    5       18.889178   0.000000
    6       23.624601   0.000000
    7       25.985444   0.000000
    8       27.224712   0.000000

  0.3809524E+00  0.1428571E+00  0.3885781E-15  0.2591513E-02
    1       -0.709146   1.000000
    2        8.491292   1.035578
    3       15.787871   0.000000
    4       16.063880   0.000000
    5       18.676469   0.000000
    6       24.713927   0.000000
    7       25.275607   0.000000
    8       27.506549   0.000000

  0.4285714E+00  0.1428571E+00  0.3608225E-15  0.2591513E-02
    1        0.242159   1.000000
    2        6.849643   1.000000
    3       15.428491   0.000000
    4       15.833657   0.000000
    5       18.639851   0.000000
    6       24.616871   0.000000
    7       25.465034   0.000000
    8       28.174294   0.000000

  0.4761905E+00  0.1428571E+00  0.3885781E-15  0.2591513E-02
    1        1.309184   1.000000
    2        5.321228   1.000000
    3       14.858699   0.000000
    4       15.989161   0.000000
    5       18.766818   0.000000
    6       24.055816   0.000000
    7       25.751708   0.000000
    8       29.319792   0.000000

 -0.4761905E+00  0.1428571E+00  0.2775558E-15  0.2591513E-02
    1        2.448900   1.000000
    2        3.949559   1.000000
    3       14.375592   0.000000
    4       16.251872   0.000000
    5       19.037005   0.000000
    6       23.597141   0.000000
    7       25.738634   0.000000
    8       29.675071   0.000000

 -0.4285714E+00  0.1428571E+00  0.2775558E-15  0.2591513E-02
    1        2.448427   1.000000
    2        3.949283   1.000000
    3       13.991688   0.000000
    4       16.616991   0.000000
    5       19.434425   0.000000
    6       23.227677   0.000000
    7       25.597791   0.000000
    8       29.817412   0.000000

 -0.3809524E+00  0.1428571E+00  0.3330669E-15  0.2591513E-02
    1        1.308699   1.000000
    2        5.320441   1.000000
    3       13.715871   0.000000
    4       17.082227   0.000000
    5       19.955421   0.000000
    6       22.996772   0.000000
    7       25.428040   0.000000
    8       30.069435   0.000000

 -0.3333333E+00  0.1428571E+00  0.3885781E-15  0.2591513E-02
    1        0.242304   1.000000
    2        6.848079   1.000000
    3       13.552467   0.000000
    4       17.638079   0.000000
    5       20.589762   0.000000
    6       22.891604   0.000000
    7       25.259893   0.000000
    8       29.150538   0.000000

 -0.2857143E+00  0.1428571E+00  0.3885781E-15  0.2591513E-02
    1       -0.709780   1.000000
    2        8.486752   1.034037
    3       13.503888   0.000000
    4       18.270515   0.000000
    5       21.331673   0.000000
    6       22.919805   0.000000
    7       25.097387   0.000000
    8       27.574712   0.000000

 -0.2380952E+00  0.1428571E+00  0.3608225E-15  0.2591513E-02
    1       -1.540158   1.000000
    2       10.223617   0.244083
    3       13.574536   0.000000
    4       18.959060   0.000000
    5       22.183167   0.000000
    6       23.097546   0.000000
    7       24.932624   0.000000
    8       26.100990   0.000000

 -0.1904762E+00  0.1428571E+00  0.3608225E-15  0.2591513E-02
    1       -2.245917   1.000000
    2       12.032817   0.000000
    3       13.777586   0.000000
    4       19.655646   0.000000
    5       23.093175   0.000000
    6       23.369995   0.000000
    7       24.711379   0.000000
    8       24.863981   0.000000

 -0.1428571E+00  0.1428571E+00  0.3608225E-15  0.1295756E-02
    1       -2.825121   1.000000
    2       13.711323   0.000000
    3       14.294696   0.000000
    4       20.252582   0.000000
    5       23.300167   0.000000
    6       23.977078   0.000000
    7       24.340410   0.000000
    8       24.352555   0.000000

  0.1904762E+00  0.1904762E+00  0.3742002E-15  0.6478782E-03
    1       -2.996605   1.000000
    2       16.174412   0.000000
    3       16.174503   0.000000
    4       17.803697   0.000000
    5       17.905103   0.000000
    6       20.945846   0.000000
    7       27.947807   0.000000
    8       27.947855   0.000000

  0.2380952E+00  0.1904762E+00  0.3712308E-15  0.2591513E-02
    1       -2.588283   1.000000
    2       14.835560   0.000000
    3       15.740724   0.000000
    4       17.106908   0.000000
    5       18.035339   0.000000
    6       20.321668   0.000000
    7       28.466451   0.000000
    8       28.544071   0.000000

  0.2857143E+00  0.1904762E+00  0.3816392E-15  0.2591513E-02
    1       -2.051979   1.000000
    2       13.011600   0.000000
    3       15.418143   0.000000
    4       16.331695   0.000000
    5       18.153156   0.000000
    6       20.653515   0.000000
    7       28.194229   0.000000
    8       28.796835   0.000000

  0.3333333E+00  0.1904762E+00  0.3885781E-15  0.2591513E-02
    1       -1.389666   1.000000
    2       11.184636  -0.053283
    3       15.202930   0.000000
    4       15.516506   0.000000
    5       17.973500   0.000000
    6       21.697429   0.000000
    7       27.563869   0.000000
    8       28.851944   0.000000

  0.3809524E+00  0.1904762E+00  0.3747003E-15  0.2591513E-02
    1       -0.601994   1.000000
    2        9.425299   0.837407
    3       14.718819   0.000000
    4       15.104210   0.000000
    5       17.846428   0.000000
    6       23.017225   0.000000
    7       26.865962   0.000000
    8       28.852794   0.000000

  0.4285714E+00  0.1904762E+00  0.3885781E-15  0.2591513E-02
    1        0.308088   1.000000
    2        7.757807   1.000000
    3       13.984607   0.000000
    4       15.117141   0.000000
    5       17.838452   0.000000
    6       24.400975   0.000000
    7       26.202285   0.000000
    8       28.794584   0.000000

  0.4761905E+00  0.1904762E+00  0.3608225E-15  0.2591513E-02
    1        1.336055   1.000000
    2        6.195444   1.000000
    3       13.335735   0.000000
    4       15.241425   0.000000
    5       17.956487   0.000000
    6       25.603573   0.000000
    7       25.694040   0.000000
    8       28.865917   0.000000

 -0.4761905E+00  0.1904762E+00  0.3330669E-15  0.2591513E-02
    1        2.463346   1.000000
    2        4.760990   1.000000
    3       12.788289   0.000000
    4       15.476126   0.000000
    5       18.207756   0.000000
    6       25.109349   0.000000
    7       26.556897   0.000000
    8       29.333449   0.000000

 -0.4285714E+00  0.1904762E+00  0.2775558E-15  0.2591513E-02
    1        3.159855   1.000000
    2        3.986524   1.000000
    3       12.349022   0.000000
    4       15.819201   0.000000
    5       18.583788   0.000000
    6       24.715985   0.000000
    7       26.781990   0.000000
    8       30.269472   0.000000

 -0.3809524E+00  0.1904762E+00  0.2775558E-15  0.2591513E-02
    1        2.078955   1.000000
    2        5.219792   1.000000
    3       12.024028   0.000000
    4       16.267962   0.000000
    5       19.081580   0.000000
    6       24.433755   0.000000
    7       26.692170   0.000000
    8       30.710281   0.000000

 -0.3333333E+00  0.1904762E+00  0.2775558E-15  0.2591513E-02
    1        0.979795   1.000000
    2        6.698379   1.000000
    3       11.817159   0.000000
    4       16.816190   0.000000
    5       19.693198   0.000000
    6       24.247356   0.000000
    7       26.488691   0.000000
    8       29.022961   0.000000

 -0.2857143E+00  0.1904762E+00  0.3885781E-15  0.2591513E-02
    1       -0.009640   1.000000
    2        8.289347   1.001126
    3       11.733380   0.000000
    4       17.458144   0.000000
    5       20.419671   0.000000
    6       24.201784   0.000000
    7       26.227753   0.000000
    8       27.396741   0.000000

 -0.2380952E+00  0.1904762E+00  0.3885781E-15  0.2591513E-02
    1       -0.879019   1.000000
    2        9.959158   0.473091
    3       11.790804   0.000000
    4       18.176101   0.000000
    5       21.241723   0.000000
    6       24.280935   0.000000
    7       25.862172   0.000000
    8       25.888647   0.000000

 -0.1904762E+00  0.1904762E+00  0.3885781E-15  0.1295756E-02
    1       -1.625288   1.000000
    2       11.478969   0.000000
    3       12.206715   0.000000
    4       18.938466   0.000000
    5       22.141327   0.000000
    6       24.500076   0.000000
    7       24.511013   0.000000
    8       25.398199   0.000000

  0.2380952E+00  0.2380952E+00  0.3742002E-15  0.6478782E-03
    1       -2.223462   1.000000
    2       15.270123   0.000000
    3       15.270210   0.000000
    4       16.105954   0.000000
    5       16.918055   0.000000
    6       19.357823   0.000000
    7       29.628021   0.000000
    8       29.628082   0.000000

  0.2857143E+00  0.2380952E+00  0.3712308E-15  0.2591513E-02
    1       -1.730395   1.000000
    2       13.964369   0.000000
    3       14.907263   0.000000
    4       15.221270   0.000000
    5       17.038561   0.000000
    6       19.135845   0.000000
    7       29.727459   0.000000
    8       30.225986   0.000000

  0.3333333E+00  0.2380952E+00  0.3955170E-15  0.2591513E-02
    1       -1.111503   1.000000
    2       12.206765   0.000000
    3       14.288026   0.000000
    4       14.659468   0.000000
    5       17.166325   0.000000
    6       19.814393   0.000000
    7       29.195245   0.000000
    8       30.440465   0.000000

  0.3809524E+00  0.2380952E+00  0.3747003E-15  0.2591513E-02
    1       -0.367084   1.000000
    2       10.455188   0.085500
    3       13.393704   0.000000
    4       14.524413   0.000000
    5       17.124654   0.000000
    6       21.036718   0.000000
    7       28.541230   0.000000
    8       30.439871   0.000000

  0.4285714E+00  0.2380952E+00  0.3747003E-15  0.2591513E-02
    1        0.500540   1.000000
    2        8.771586   1.069475
    3       12.580264   0.000000
    4       14.501926   0.000000
    5       17.127597   0.000000
    6       22.476632   0.000000
    7       27.872299   0.000000
    8       30.278659   0.000000

  0.4761905E+00  0.2380952E+00  0.3608225E-15  0.2591513E-02
    1        1.486959   1.000000
    2        7.183134   1.000000
    3       11.867317  -0.000391
    4       14.591908   0.000000
    5       17.237148   0.000000
    6       24.032061   0.000000
    7       27.274644   0.000000
    8       30.019620   0.000000

 -0.4761905E+00  0.2380952E+00  0.3330669E-15  0.2591513E-02
    1        2.583182   1.000000
    2        5.707398   1.000000
    3       11.263190  -0.039700
    4       14.793513   0.000000
    5       17.460507   0.000000
    6       25.586060   0.000000
    7       26.740699   0.000000
    8       29.745376   0.000000

 -0.4285714E+00  0.2380952E+00  0.3330669E-15  0.2591513E-02
    1        3.666517   1.000000
    2        4.470139   1.000000
    3       10.774138  -0.029052
    4       15.105768   0.000000
    5       17.808067   0.000000
    6       26.306155   0.000000
    7       26.976933   0.000000
    8       29.564797   0.000000

 -0.3809524E+00  0.2380952E+00  0.2775558E-15  0.2591513E-02
    1        2.965172   1.000000
    2        5.244023   1.000000
    3       10.404288   0.110750
    4       15.526997   0.000000
    5       18.276504   0.000000
    6       25.981665   0.000000
    7       27.732333   0.000000
    8       29.827452   0.000000

 -0.3333333E+00  0.2380952E+00  0.3330669E-15  0.2591513E-02
    1        1.839295   1.000000
    2        6.664600   1.000000
    3       10.160632   0.266098
    4       16.053875   0.000000
    5       18.862395   0.000000
    6       25.764252   0.000000
    7       27.718232   0.000000
    8       29.020083   0.000000

 -0.2857143E+00  0.2380952E+00  0.2775558E-15  0.2591513E-02
    1        0.813856   1.000000
    2        8.182511   1.000000
    3       10.063999   0.238205
    4       16.680697   0.000000
    5       19.558297   0.000000
    6       25.650792   0.000000
    7       27.332411   0.000000
    8       27.365647   0.000000

 -0.2380952E+00  0.2380952E+00  0.3885781E-15  0.1295756E-02
    1       -0.093901   1.000000
    2        9.542487   0.974911
    3       10.349800  -0.010980
    4       17.394552   0.000000
    5       20.358501   0.000000
    6       25.479302   0.000000
    7       25.976853   0.000000
    8       26.714451   0.000000

  0.2857143E+00  0.2857143E+00  0.3742002E-15  0.6478782E-03
    1       -1.281653   1.000000
    2       14.044153   0.000000