Automatically generated mesh
     286
Reciprocal lattice
    0.00000000000000    0.00000000000000    0.00000000000000             1
    0.04761904761905    0.00000000000000    0.00000000000000             8
    0.09523809523810    0.00000000000000    0.00000000000000             8
    0.14285714285714    0.00000000000000    0.00000000000000             8
    0.19047619047619    0.00000000000000    0.00000000000000             8
    0.23809523809524    0.00000000000000    0.00000000000000             8
    0.28571428571429    0.00000000000000    0.00000000000000             8
    0.33333333333333    0.00000000000000    0.00000000000000             8
    0.38095238095238    0.00000000000000    0.00000000000000             8
    0.42857142857143    0.00000000000000    0.00000000000000             8
    0.47619047619048    0.00000000000000    0.00000000000000             8
    0.04761904761905    0.04761904761905    0.00000000000000             6
    0.09523809523810    0.04761904761905    0.00000000000000            24
    0.14285714285714    0.04761904761905    0.00000000000000            24
    0.19047619047619    0.04761904761905    0.00000000000000            24
    0.23809523809524    0.04761904761905    0.00000000000000            24
    0.28571428571429    0.04761904761905    0.00000000000000            24
    0.33333333333333    0.04761904761905    0.00000000000000            24
    0.38095238095238    0.04761904761905    0.00000000000000            24
    0.42857142857143    0.04761904761905    0.00000000000000            24
    0.47619047619048    0.04761904761905    0.00000000000000            24
   -0.47619047619048    0.04761904761905    0.00000000000000            24
   -0.42857142857143    0.04761904761905    0.00000000000000            24
   -0.38095238095238    0.04761904761905    0.00000000000000            24
   -0.33333333333333    0.04761904761905    0.00000000000000            24
   -0.28571428571429    0.04761904761905    0.00000000000000            24
   -0.23809523809524    0.04761904761905    0.00000000000000            24
   -0.19047619047619    0.04761904761905    0.00000000000000            24
   -0.14285714285714    0.04761904761905    0.00000000000000            24
   -0.09523809523809    0.04761904761905    0.00000000000000            24
   -0.04761904761905    0.04761904761905    0.00000000000000            12
    0.09523809523810    0.09523809523810    0.00000000000000             6
    0.14285714285714    0.09523809523810    0.00000000000000            24
    0.19047619047619    0.09523809523810    0.00000000000000            24
    0.23809523809524    0.09523809523810    0.00000000000000            24
    0.28571428571429    0.09523809523810    0.00000000000000            24
    0.33333333333333    0.09523809523810    0.00000000000000            24
    0.38095238095238    0.09523809523810    0.00000000000000            24
    0.42857142857143    0.09523809523810    0.00000000000000            24
    0.47619047619048    0.09523809523810    0.00000000000000            24
   -0.47619047619048    0.09523809523810    0.00000000000000            24
   -0.42857142857143    0.09523809523810    0.00000000000000            24
   -0.38095238095238    0.09523809523810    0.00000000000000            24
   -0.33333333333333    0.09523809523810    0.00000000000000            24
   -0.28571428571429    0.09523809523810    0.00000000000000            24
   -0.23809523809524    0.09523809523810    0.00000000000000            24
   -0.19047619047619    0.09523809523810    0.00000000000000            24
   -0.14285714285714    0.09523809523810    0.00000000000000            24
   -0.09523809523809    0.09523809523810    0.00000000000000            12
    0.14285714285714    0.14285714285714    0.00000000000000             6
    0.19047619047619    0.14285714285714    0.00000000000000            24
    0.23809523809524    0.14285714285714    0.00000000000000            24
    0.28571428571429    0.14285714285714    0.00000000000000            24
    0.33333333333333    0.14285714285714    0.00000000000000            24
    0.38095238095238    0.14285714285714    0.00000000000000            24
    0.42857142857143    0.14285714285714    0.00000000000000            24
    0.47619047619048    0.14285714285714    0.00000000000000            24
   -0.47619047619048    0.14285714285714    0.00000000000000            24
   -0.42857142857143    0.14285714285714    0.00000000000000            24
   -0.38095238095238    0.14285714285714    0.00000000000000            24
   -0.33333333333333    0.14285714285714    0.00000000000000            24
   -0.28571428571429    0.14285714285714    0.00000000000000            24
   -0.23809523809524    0.14285714285714    0.00000000000000            24
   -0.19047619047619    0.14285714285714    0.00000000000000            24
   -0.14285714285714    0.14285714285714    0.00000000000000            12
    0.19047619047619    0.19047619047619    0.00000000000000             6
    0.23809523809524    0.19047619047619    0.00000000000000            24
    0.28571428571429    0.19047619047619    0.00000000000000            24
    0.33333333333333    0.19047619047619    0.00000000000000            24
    0.38095238095238    0.19047619047619    0.00000000000000            24
    0.42857142857143    0.19047619047619    0.00000000000000            24
    0.47619047619048    0.19047619047619    0.00000000000000            24
   -0.47619047619048    0.19047619047619    0.00000000000000            24
   -0.42857142857143    0.19047619047619    0.00000000000000            24
   -0.38095238095238    0.19047619047619    0.00000000000000            24
   -0.33333333333333    0.19047619047619    0.00000000000000            24
   -0.28571428571429    0.19047619047619    0.00000000000000            24
   -0.23809523809524    0.19047619047619    0.00000000000000            24
   -0.19047619047619    0.19047619047619    0.00000000000000            12
    0.23809523809524    0.23809523809524    0.00000000000000             6
    0.28571428571429    0.23809523809524    0.00000000000000            24
    0.33333333333333    0.23809523809524    0.00000000000000            24
    0.38095238095238    0.23809523809524    0.00000000000000            24
    0.42857142857143    0.23809523809524    0.00000000000000            24
    0.47619047619048    0.23809523809524    0.00000000000000            24
   -0.47619047619048    0.23809523809524    0.00000000000000            24
   -0.42857142857143    0.23809523809524    0.00000000000000            24
   -0.38095238095238    0.23809523809524    0.00000000000000            24
   -0.33333333333333    0.23809523809524    0.00000000000000            24
   -0.28571428571429    0.23809523809524    0.00000000000000            24
   -0.23809523809524    0.23809523809524    0.00000000000000            12
    0.28571428571429    0.28571428571429    0.00000000000000             6
    0.33333333333333    0.28571428571429    0.00000000000000            24
    0.38095238095238    0.28571428571429    0.00000000000000            24
    0.42857142857143    0.28571428571429    0.00000000000000            24
    0.47619047619048    0.28571428571429    0.00000000000000            24
   -0.47619047619048    0.28571428571429    0.00000000000000            24
   -0.42857142857143    0.28571428571429    0.00000000000000            24
   -0.38095238095238    0.28571428571429    0.00000000000000            24
   -0.33333333333333    0.28571428571429    0.00000000000000            24
   -0.28571428571429    0.28571428571429    0.00000000000000            12
    0.33333333333333    0.33333333333333    0.00000000000000             6
    0.38095238095238    0.33333333333333    0.00000000000000            24
    0.42857142857143    0.33333333333333    0.00000000000000            24
    0.47619047619048    0.33333333333333    0.00000000000000            24
   -0.47619047619048    0.33333333333333    0.00000000000000            24
   -0.42857142857143    0.33333333333333    0.00000000000000            24
   -0.38095238095238    0.33333333333333    0.00000000000000            24
   -0.33333333333333    0.33333333333333    0.00000000000000            12
    0.38095238095238    0.38095238095238    0.00000000000000             6
    0.42857142857143    0.38095238095238    0.00000000000000            24
    0.47619047619048    0.38095238095238    0.00000000000000            24
   -0.47619047619048    0.38095238095238    0.00000000000000            24
   -0.42857142857143    0.38095238095238    0.00000000000000            24
   -0.38095238095238    0.38095238095238    0.00000000000000            12
    0.42857142857143    0.42857142857143    0.00000000000000             6
    0.47619047619048    0.42857142857143    0.00000000000000            24
   -0.47619047619048    0.42857142857143    0.00000000000000            24
   -0.42857142857143    0.42857142857143    0.00000000000000            12
    0.47619047619048    0.47619047619048    0.00000000000000             6
   -0.47619047619048    0.47619047619048    0.00000000000000            12
    0.14285714285714    0.09523809523810    0.04761904761905            24
    0.19047619047619    0.09523809523810    0.04761904761905            48
    0.23809523809524    0.09523809523810    0.04761904761905            48
    0.28571428571429    0.09523809523810    0.04761904761905            48
    0.33333333333333    0.09523809523810    0.04761904761905            48
    0.38095238095238    0.09523809523810    0.04761904761905            48
    0.42857142857143    0.09523809523810    0.04761904761905            48
    0.47619047619048    0.09523809523810    0.04761904761905            48
   -0.47619047619048    0.09523809523810    0.04761904761905            48
    0.19047619047619    0.14285714285714    0.04761904761905            24
    0.23809523809524    0.14285714285714    0.04761904761905            48
    0.28571428571429    0.14285714285714    0.04761904761905            48
    0.33333333333333    0.14285714285714    0.04761904761905            48
    0.38095238095238    0.14285714285714    0.04761904761905            48
    0.42857142857143    0.14285714285714    0.04761904761905            48
    0.47619047619048    0.14285714285714    0.04761904761905            48
   -0.47619047619048    0.14285714285714    0.04761904761905            48
   -0.42857142857143    0.14285714285714    0.04761904761905            48
   -0.38095238095238    0.14285714285714    0.04761904761905            48
   -0.33333333333333    0.14285714285714    0.04761904761905            48
   -0.28571428571429    0.14285714285714    0.04761904761905            48
   -0.23809523809524    0.14285714285714    0.04761904761905            48
   -0.19047619047619    0.14285714285714    0.04761904761905            48
   -0.14285714285714    0.14285714285714    0.04761904761905            48
   -0.09523809523809    0.14285714285714    0.04761904761905            24
    0.23809523809524    0.19047619047619    0.04761904761905            24
    0.28571428571429    0.19047619047619    0.04761904761905            48
    0.33333333333333    0.19047619047619    0.04761904761905            48
    0.38095238095238    0.19047619047619    0.04761904761905            48
    0.42857142857143    0.19047619047619    0.04761904761905            48
    0.47619047619048    0.19047619047619    0.04761904761905            48
   -0.47619047619048    0.19047619047619    0.04761904761905            48
   -0.42857142857143    0.19047619047619    0.04761904761905            48
   -0.38095238095238    0.19047619047619    0.04761904761905            48
   -0.33333333333333    0.19047619047619    0.04761904761905            48
   -0.28571428571429    0.19047619047619    0.04761904761905            48
   -0.23809523809524    0.19047619047619    0.04761904761905            48
   -0.19047619047619    0.19047619047619    0.04761904761905            48
   -0.14285714285714    0.19047619047619    0.04761904761905            24
    0.28571428571429    0.23809523809524    0.04761904761905            24
    0.33333333333333    0.23809523809524    0.04761904761905            48
    0.38095238095238    0.23809523809524    0.04761904761905            48
    0.42857142857143    0.23809523809524    0.04761904761905            48
    0.47619047619048    0.23809523809524    0.04761904761905            48
   -0.47619047619048    0.23809523809524    0.04761904761905            48
   -0.42857142857143    0.23809523809524    0.04761904761905            48
   -0.38095238095238    0.23809523809524    0.04761904761905            48
   -0.33333333333333    0.23809523809524    0.04761904761905            48
   -0.28571428571429    0.23809523809524    0.04761904761905            48
   -0.23809523809524    0.23809523809524    0.04761904761905            48
   -0.19047619047619    0.23809523809524    0.04761904761905            24
    0.33333333333333    0.28571428571429    0.04761904761905            24
    0.38095238095238    0.28571428571429    0.04761904761905            48
    0.42857142857143    0.28571428571429    0.04761904761905            48
    0.47619047619048    0.28571428571429    0.04761904761905            48
   -0.47619047619048    0.28571428571429    0.04761904761905            48
   -0.42857142857143    0.28571428571429    0.04761904761905            48
   -0.38095238095238    0.28571428571429    0.04761904761905            48
   -0.33333333333333    0.28571428571429    0.04761904761905            48
   -0.28571428571429    0.28571428571429    0.04761904761905            48
   -0.23809523809524    0.28571428571429    0.04761904761905            24
    0.38095238095238    0.33333333333333    0.04761904761905            24
    0.42857142857143    0.33333333333333    0.04761904761905            48
    0.47619047619048    0.33333333333333    0.04761904761905            48
   -0.47619047619048    0.33333333333333    0.04761904761905            48
   -0.42857142857143    0.33333333333333    0.04761904761905            48
   -0.38095238095238    0.33333333333333    0.04761904761905            48
   -0.33333333333333    0.33333333333333    0.04761904761905            48
   -0.28571428571429    0.33333333333333    0.04761904761905            24
    0.42857142857143    0.38095238095238    0.04761904761905            24
    0.47619047619048    0.38095238095238    0.04761904761905            48
   -0.47619047619048    0.38095238095238    0.04761904761905            48
   -0.42857142857143    0.38095238095238    0.04761904761905            48
   -0.38095238095238    0.38095238095238    0.04761904761905            48
   -0.33333333333333    0.38095238095238    0.04761904761905            24
    0.47619047619048    0.42857142857143    0.04761904761905            24
   -0.47619047619048    0.42857142857143    0.04761904761905            48
   -0.42857142857143    0.42857142857143    0.04761904761905            48
   -0.38095238095238    0.42857142857143    0.04761904761905            24
   -0.47619047619048    0.47619047619048    0.04761904761905            24
   -0.42857142857143    0.47619047619048    0.04761904761905            24
    0.28571428571429    0.19047619047619    0.09523809523810            24
    0.33333333333333    0.19047619047619    0.09523809523810            48
    0.38095238095238    0.19047619047619    0.09523809523810            48
    0.42857142857143    0.19047619047619    0.09523809523810            48
    0.47619047619048    0.19047619047619    0.09523809523810            48
   -0.47619047619048    0.19047619047619    0.09523809523810            48
   -0.42857142857143    0.19047619047619    0.09523809523810            48
    0.33333333333333    0.23809523809524    0.09523809523810            24
    0.38095238095238    0.23809523809524    0.09523809523810            48
    0.42857142857143    0.23809523809524    0.09523809523810            48
    0.47619047619048    0.23809523809524    0.09523809523810            48
   -0.47619047619048    0.23809523809524    0.09523809523810            48
   -0.42857142857143    0.23809523809524    0.09523809523810            48
   -0.38095238095238    0.23809523809524    0.09523809523810            48
   -0.33333333333333    0.23809523809524    0.09523809523810            48
   -0.28571428571429    0.23809523809524    0.09523809523810            48
   -0.23809523809524    0.23809523809524    0.09523809523810            48
   -0.19047619047619    0.23809523809524    0.09523809523810            48
   -0.14285714285714    0.23809523809524    0.09523809523810            24
    0.38095238095238    0.28571428571429    0.09523809523810            24
    0.42857142857143    0.28571428571429    0.09523809523810            48
    0.47619047619048    0.28571428571429    0.09523809523810            48
   -0.47619047619048    0.28571428571429    0.09523809523810            48
   -0.42857142857143    0.28571428571429    0.09523809523810            48
   -0.38095238095238    0.28571428571429    0.09523809523810            48
   -0.33333333333333    0.28571428571429    0.09523809523810            48
   -0.28571428571429    0.28571428571429    0.09523809523810            48
   -0.23809523809524    0.28571428571429    0.09523809523810            48
   -0.19047619047619    0.28571428571429    0.09523809523810            24
    0.42857142857143    0.33333333333333    0.09523809523810            24
    0.47619047619048    0.33333333333333    0.09523809523810            48
   -0.47619047619048    0.33333333333333    0.09523809523810            48
   -0.42857142857143    0.33333333333333    0.09523809523810            48
   -0.38095238095238    0.33333333333333    0.09523809523810            48
   -0.33333333333333    0.33333333333333    0.09523809523810            48
   -0.28571428571429    0.33333333333333    0.09523809523810            48
   -0.23809523809524    0.33333333333333    0.09523809523810            24
    0.47619047619048    0.38095238095238    0.09523809523810            24
   -0.47619047619048    0.38095238095238    0.09523809523810            48
   -0.42857142857143    0.38095238095238    0.09523809523810            48
   -0.38095238095238    0.38095238095238    0.09523809523810            48
   -0.33333333333333    0.38095238095238    0.09523809523810            48
   -0.28571428571429    0.38095238095238    0.09523809523810            24
   -0.47619047619048    0.42857142857143    0.09523809523810            24
   -0.42857142857143    0.42857142857143    0.09523809523810            48
   -0.38095238095238    0.42857142857143    0.09523809523810            48
   -0.33333333333333    0.42857142857143    0.09523809523810            24
   -0.42857142857143    0.47619047619048    0.09523809523810            24
   -0.38095238095238    0.47619047619048    0.09523809523810            24
    0.42857142857143    0.28571428571429    0.14285714285714            24
    0.47619047619048    0.28571428571429    0.14285714285714            48
   -0.47619047619048    0.28571428571429    0.14285714285714            48
   -0.42857142857143    0.28571428571429    0.14285714285714            48
   -0.38095238095238    0.28571428571429    0.14285714285714            48
    0.47619047619048    0.33333333333333    0.14285714285714            24
   -0.47619047619048    0.33333333333333    0.14285714285714            48
   -0.42857142857143    0.33333333333333    0.14285714285714            48
   -0.38095238095238    0.33333333333333    0.14285714285714            48
   -0.33333333333333    0.33333333333333    0.14285714285714            48
   -0.28571428571429    0.33333333333333    0.14285714285714            48
   -0.23809523809524    0.33333333333333    0.14285714285714            48
   -0.19047619047619    0.33333333333333    0.14285714285714            24
   -0.47619047619048    0.38095238095238    0.14285714285714            24
   -0.42857142857143    0.38095238095238    0.14285714285714            48
   -0.38095238095238    0.38095238095238    0.14285714285714            48
   -0.33333333333333    0.38095238095238    0.14285714285714            48
   -0.28571428571429    0.38095238095238    0.14285714285714            48
   -0.23809523809524    0.38095238095238    0.14285714285714            24
   -0.42857142857143    0.42857142857143    0.14285714285714            24
   -0.38095238095238    0.42857142857143    0.14285714285714            48
   -0.33333333333333    0.42857142857143    0.14285714285714            48
   -0.28571428571429    0.42857142857143    0.14285714285714            24
   -0.38095238095238    0.47619047619048    0.14285714285714            24
   -0.33333333333333    0.47619047619048    0.14285714285714            24
   -0.42857142857143    0.38095238095238    0.19047619047619            24
   -0.38095238095238    0.38095238095238    0.19047619047619            48
   -0.33333333333333    0.38095238095238    0.19047619047619            48
   -0.38095238095238    0.42857142857143    0.19047619047619            24
   -0.33333333333333    0.42857142857143    0.19047619047619            48
   -0.28571428571429    0.42857142857143    0.19047619047619            48
   -0.23809523809524    0.42857142857143    0.19047619047619            24
   -0.33333333333333    0.47619047619048    0.19047619047619            24
   -0.28571428571429    0.47619047619048    0.19047619047619            24
   -0.28571428571429    0.47619047619048    0.23809523809524            24
Tetrahedra
      1276    0.00001799661664
        24         1         2         2        12
        48         2        12        13        31
        48         2         3        13        31
        24         2         2        12        31
        48         3        13        14        30
        48         3         4        14        30
        48         3        13        30        31
        48         4        14        15        29
        48         4         5        15        29
        48         4        14        29        30
        48         5        15        16        28
        48         5         6        16        28
        48         5        15        28        29
        48         6        16        17        27
        48         6         7        17        27
        48         6        16        27        28
        48         7        17        18        26
        48         7         8        18        26
        48         7        17        26        27
        48         8        18        19        25
        48         8         9        19        25
        48         8        18        25        26
        48         9        19        20        24
        48         9        10        20        24
        48         9        19        24        25
        48        10        20        21        23
        48        10        11        21        23
        48        10        20        23        24
        48        11        21        22        22
        24        11        11        22        22
        48        11        21        22        23
        24        12        13        13        32
        24        12        13        13        31
        48        13        32        33       122
        48        13        14        33       122
        48        13        14        30       122
        24        13        13        32       122
        24        13        13        31       122
        48        13        30        31       122
        48        14        33        34       123
        48        14        15        34       123
        48        14        15        29       123
        48        14        33       122       123
        48        14        30       122       123
        48        14        29        30       123
        48        15        34        35       124
        48        15        16        35       124
        48        15        16        28       124
        48        15        34       123       124
        48        15        29       123       124
        48        15        28        29       124
        48        16        35        36       125
        48        16        17        36       125
        48        16        17        27       125
        48        16        35       124       125
        48        16        28       124       125
        48        16        27        28       125
        48        17        36        37       126
        48        17        18        37       126
        48        17        18        26       126
        48        17        36       125       126
        48        17        27       125       126
        48        17        26        27       126
        48        18        37        38       127
        48        18        19        38       127
        48        18        19        25       127
        48        18        37       126       127
        48        18        26       126       127
        48        18        25        26       127
        48        19        38        39       128
        48        19        20        39       128
        48        19        20        24       128
        48        19        38       127       128
        48        19        25       127       128
        48        19        24        25       128
        48        20        39        40       129
        48        20        21        40       129
        48        20        21        23       129
        48        20        39       128       129
        48        20        24       128       129
        48        20        23        24       129
        48        21        40        41       130
        48        21        22        41       130
        48        21        22        22       130
        48        21        40       129       130
        48        21        23       129       130
        48        21        22        23       130
        48        22        41        42       130
        48        22        23        42       130
        48        22        41       130       130
        24        22        22       130       130
        48        23        42        43       129
        48        23        24        43       129
        48        23        42       129       130
        48        24        43        44       128
        48        24        25        44       128
        48        24        43       128       129
        48        25        44        45       127
        48        25        26        45       127
        48        25        44       127       128
        48        26        45        46       126
        48        26        27        46       126
        48        26        45       126       127
        48        27        46        47       125
        48        27        28        47       125
        48        27        46       125       126
        48        28        47        48       124
        48        28        29        48       124
        48        28        47       124       125
        48        29        48        49       123
        48        29        30        49       123
        48        29        48       123       124
        24        30        30        49       122
        24        30        30        31       122
        48        30        49       122       123
        24        32        33        33        50
        24        32        33        33       122
        48        33        50        51       131
        48        33        34        51       131
        48        33        34       123       131
        24        33        33        50       131
        24        33        33       122       131
        48        33       122       123       131
        48        34        51        52       132
        48        34        35        52       132
        48        34        35       124       132
        48        34        51       131       132
        48        34       123       131       132
        48        34       123       124       132
        48        35        52        53       133
        48        35        36        53       133
        48        35        36       125       133
        48        35        52       132       133
        48        35       124       132       133
        48        35       124       125       133
        48        36        53        54       134
        48        36        37        54       134
        48        36        37       126       134
        48        36        53       133       134
        48        36       125       133       134
        48        36       125       126       134
        48        37        54        55       135
        48        37        38        55       135
        48        37        38       127       135
        48        37        54       134       135
        48        37       126       134       135
        48        37       126       127       135
        48        38        55        56       136
        48        38        39        56       136
        48        38        39       128       136
        48        38        55       135       136
        48        38       127       135       136
        48        38       127       128       136
        48        39        56        57       137
        48        39        40        57       137
        48        39        40       129       137
        48        39        56       136       137
        48        39       128       136       137
        48        39       128       129       137
        48        40        57        58       138
        48        40        41        58       138
        48        40        41       130       138
        48        40        57       137       138
        48        40       129       137       138
        48        40       129       130       138