       N       E                     dE             d eps       ncg     rms          rms(c)
DAV:   1    -0.402681405549E+01   -0.40268E+01   -0.12070E+03  5176   0.213E+02
DAV:   2    -0.488352624352E+01   -0.85671E+00   -0.82925E+00  6880   0.168E+01
DAV:   3    -0.488652717405E+01   -0.30009E-02   -0.29692E-02  5160   0.920E-01
DAV:   4    -0.488652873662E+01   -0.15626E-05   -0.15449E-05  7432   0.193E-02
DAV:   5    -0.488652873656E+01    0.55493E-10   -0.36504E-09  4800   0.145E-04    0.770E-01
DAV:   6    -0.487372929290E+01    0.12799E-01   -0.40415E-03  5120   0.275E-01    0.460E-01
DAV:   7    -0.486637557427E+01    0.73537E-02   -0.89362E-03  5312   0.408E-01    0.254E-02
DAV:   8    -0.486636540481E+01    0.10169E-04   -0.29838E-05  5392   0.356E-02
   1 F= -.48663654E+01 E0= -.48663654E+01  d E =0.000000E+00
