PROCAR lm decomposed
# of k-points:  286         # of bands:   8         # of ions:   1

 k-point    1 :    0.00000000 0.00000000 0.00000000     weight = 0.00010798

band   1 # energy   -4.37848819 # occ.  2.00000000

ion      s     py     pz     px    dxy    dyz    dz2    dxz    dx2    tot
  1  0.384  0.000  0.000  0.000  0.000  0.000  0.000  0.000  0.000  0.384

band   2 # energy   20.69438320 # occ.  0.00000000

ion      s     py     pz     px    dxy    dyz    dz2    dxz    dx2    tot
  1  0.000  0.226  0.225  0.225  0.000  0.000  0.000  0.000  0.000  0.677

band   3 # energy   20.69456157 # occ.  0.00000000

ion      s     py     pz     px    dxy    dyz    dz2    dxz    dx2    tot
  1  0.000  0.451  0.112  0.115  0.000  0.000  0.000  0.000  0.000  0.678

band   4 # energy   20.69456172 # occ.  0.00000000

ion      s     py     pz     px    dxy    dyz    dz2    dxz    dx2    tot
  1  0.000  0.000  0.340  0.337  0.000  0.000  0.000  0.000  0.000  0.678

band   5 # energy   21.77090805 # occ.  0.00000000

ion      s     py     pz     px    dxy    dyz    dz2    dxz    dx2    tot
  1  0.000  0.000  0.000  0.000  0.000  0.000  0.000  0.000  0.000  0.000

band   6 # energy   21.77102301 # occ.  0.00000000

ion      s     py     pz     px    dxy    dyz    dz2    dxz    dx2    tot
  1  0.000  0.000  0.000  0.000  0.000  0.000  0.000  0.000  0.000  0.000

band   7 # energy   21.77102338 # occ.  0.00000000

ion      s     py     pz     px    dxy    dyz    dz2    dxz    dx2    tot
  1  0.000  0.000  0.000  0.000  0.000  0.000  0.000  0.000  0.000  0.000

band   8 # energy   26.97769737 # occ.  0.00000000

ion      s     py     pz     px    dxy    dyz    dz2    dxz    dx2    tot
  1  0.000  0.000  0.000  0.000  0.000  0.000  0.000  0.000  0.000  0.000


 k-point    2 :    0.04761905 0.00000000 0.00000000     weight = 0.00086384

band   1 # energy   -4.31326991 # occ.  2.00000000

ion      s     py     pz     px    dxy    dyz    dz2    dxz    dx2    tot
  1  0.383  0.001  0.001  0.001  0.000  0.000  0.000  0.000  0.000  0.385

band   2 # energy   19.44887633 # occ.  0.00000000

ion      s     py     pz     px    dxy    dyz    dz2    dxz    dx2    tot
  1  0.009  0.144  0.144  0.144  0.000  0.000  0.000  0.000  0.000  0.442

band   3 # energy   20.34180554 # occ.  0.00000000

ion      s     py     pz     px    dxy    dyz    dz2    dxz    dx2    tot
  1  0.000  0.092  0.365  0.091  0.000  0.000  0.000  0.000  0.000  0.548

band   4 # energy   20.34197186 # occ.  0.00000000

ion      s     py     pz     px    dxy    dyz    dz2    dxz    dx2    tot
  1  0.000  0.274  0.000  0.274  0.000  0.000  0.000  0.000  0.000  0.548

band   5 # energy   22.23892732 # occ.  0.00000000

ion      s     py     pz     px    dxy    dyz    dz2    dxz    dx2    tot
  1  0.000  0.022  0.089  0.022  0.000  0.000  0.000  0.000  0.000  0.134

band   6 # energy   22.23904048 # occ.  0.00000000

ion      s     py     pz     px    dxy    dyz    dz2    dxz    dx2    tot
  1  0.000  0.067  0.000  0.067  0.000  0.000  0.000  0.000  0.000  0.134

band   7 # energy   22.46899006 # occ.  0.00000000

ion      s     py     pz     px    dxy    dyz    dz2    dxz    dx2    tot
  1  0.006  0.075  0.075  0.075  0.000  0.000  0.000  0.000  0.000  0.230

band   8 # energy   27.53606544 # occ.  0.00000000

ion      s     py     pz     px    dxy    dyz    dz2    dxz    dx2    tot
  1  0.000  0.001  0.001  0.001  0.000  0.000  0.000  0.000  0.000  0.002


 k-point    3 :    0.09523810 0.00000000 0.00000000     weight = 0.00086384

band   1 # energy   -4.11850357 # occ.  2.00000000

ion      s     py     pz     px    dxy    dyz    dz2    dxz    dx2    tot
  1  0.379  0.002  0.002  0.002  0.000  0.000  0.000  0.000  0.000  0.385

band   2 # energy   17.54356935 # occ.  0.00000000

ion      s     py     pz     px    dxy    dyz    dz2    dxz    dx2    tot
  1  0.024  0.119  0.119  0.119  0.000  0.000  0.000  0.000  0.000  0.381

band   3 # energy   19.79416281 # occ.  0.00000000

ion      s     py     pz     px    dxy    dyz    dz2    dxz    dx2    tot
  1  0.000  0.081  0.323  0.081  0.000  0.000  0.000  0.000  0.000  0.485

band   4 # energy   19.79432989 # occ.  0.00000000

ion      s     py     pz     px    dxy    dyz    dz2    dxz    dx2    tot
  1  0.000  0.242  0.000  0.243  0.000  0.000  0.000  0.000  0.000  0.485

band   5 # energy   22.87712641 # occ.  0.00000000

ion      s     py     pz     px    dxy    dyz    dz2    dxz    dx2    tot
  1  0.031  0.079  0.079  0.079  0.000  0.000  0.000  0.000  0.000  0.268

band   6 # energy   22.99933314 # occ.  0.00000000

ion      s     py     pz     px    dxy    dyz    dz2    dxz    dx2    tot
  1  0.000  0.034  0.137  0.034  0.000  0.000  0.000  0.000  0.000  0.205

band   7 # energy   22.99953595 # occ.  0.00000000

ion      s     py     pz     px    dxy    dyz    dz2    dxz    dx2    tot
  1  0.000  0.102  0.000  0.103  0.000  0.000  0.000  0.000  0.000  0.205

band   8 # energy   27.54457081 # occ.  0.00000000

ion      s     py     pz     px    dxy    dyz    dz2    dxz    dx2    tot
  1  0.000  0.002  0.001  0.001  0.000  0.000  0.000  0.000  0.000  0.004


 k-point    4 :    0.14285714 0.00000000 0.00000000     weight = 0.00086384

band   1 # energy   -3.79434594 # occ.  2.00000000

ion      s     py     pz     px    dxy    dyz    dz2    dxz    dx2    tot
  1  0.371  0.005  0.005  0.005  0.000  0.000  0.000  0.000  0.000  0.386

band   2 # energy   15.54188620 # occ.  0.00000000

ion      s     py     pz     px    dxy    dyz    dz2    dxz    dx2    tot
  1  0.042  0.107  0.107  0.107  0.000  0.000  0.000  0.000  0.000  0.364

band   3 # energy   19.29825847 # occ.  0.00000000

ion      s     py     pz     px    dxy    dyz    dz2    dxz    dx2    tot
  1  0.000  0.079  0.313  0.078  0.000  0.000  0.000  0.000  0.000  0.470

band   4 # energy   19.29842802 # occ.  0.00000000

ion      s     py     pz     px    dxy    dyz    dz2    dxz    dx2    tot
  1  0.000  0.235  0.000  0.235  0.000  0.000  0.000  0.000  0.000  0.470

band   5 # energy   22.94784754 # occ.  0.00000000

ion      s     py     pz     px    dxy    dyz    dz2    dxz    dx2    tot
  1  0.065  0.065  0.065  0.065  0.000  0.000  0.000  0.000  0.000  0.261

band   6 # energy   23.69772753 # occ.  0.00000000

ion      s     py     pz     px    dxy    dyz    dz2    dxz    dx2    tot
  1  0.000  0.038  0.153  0.038  0.000  0.000  0.000  0.000  0.000  0.230

band   7 # energy   23.69816404 # occ.  0.00000000

ion      s     py     pz     px    dxy    dyz    dz2    dxz    dx2    tot
  1  0.000  0.115  0.000  0.115  0.000  0.000  0.000  0.000  0.000  0.230

band   8 # energy   26.86727583 # occ.  0.00000000

ion      s     py     pz     px    dxy    dyz    dz2    dxz    dx2    tot
  1  0.000  0.000  0.000  0.000  0.000  0.000  0.000  0.000  0.000  0.000


 k-point    5 :    0.19047619 0.00000000 0.00000000     weight = 0.00086384

band   1 # energy   -3.34153330 # occ.  2.00000000

ion      s     py     pz     px    dxy    dyz    dz2    dxz    dx2    tot
  1  0.362  0.008  0.008  0.008  0.000  0.000  0.000  0.000  0.000  0.387

band   2 # energy   13.54776734 # occ.  0.00000000

ion      s     py     pz     px    dxy    dyz    dz2    dxz    dx2    tot
  1  0.062  0.099  0.099  0.099  0.000  0.000  0.000  0.000  0.000  0.358

band   3 # energy   18.89105640 # occ.  0.00000000

ion      s     py     pz     px    dxy    dyz    dz2    dxz    dx2    tot
  1  0.000  0.079  0.315  0.079  0.000  0.000  0.000  0.000  0.000  0.473

band   4 # energy   18.89122867 # occ.  0.00000000

ion      s     py     pz     px    dxy    dyz    dz2    dxz    dx2    tot
  1  0.000  0.236  0.000  0.237  0.000  0.000  0.000  0.000  0.000  0.473

band   5 # energy   22.88322995 # occ.  0.00000000

ion      s     py     pz     px    dxy    dyz    dz2    dxz    dx2    tot
  1  0.102  0.050  0.050  0.050  0.000  0.000  0.000  0.000  0.000  0.251

band   6 # energy   23.88291077 # occ.  0.00000000

ion      s     py     pz     px    dxy    dyz    dz2    dxz    dx2    tot
  1  0.000  0.034  0.136  0.034  0.000  0.000  0.000  0.000  0.000  0.204

band   7 # energy   23.88361867 # occ.  0.00000000

ion      s     py     pz     px    dxy    dyz    dz2    dxz    dx2    tot
  1  0.000  0.102  0.000  0.102  0.000  0.000  0.000  0.000  0.000  0.204

band   8 # energy   26.81702261 # occ.  0.00000000

ion      s     py     pz     px    dxy    dyz    dz2    dxz    dx2    tot
  1  0.000  0.006  0.008  0.011  0.000  0.000  0.000  0.000  0.000  0.025


 k-point    6 :    0.23809524 0.00000000 0.00000000     weight = 0.00086384

band   1 # energy   -2.76097653 # occ.  2.00000000

ion      s     py     pz     px    dxy    dyz    dz2    dxz    dx2    tot
  1  0.349  0.013  0.013  0.013  0.000  0.000  0.000  0.000  0.000  0.388

band   2 # energy   11.61617263 # occ. -0.00563385

ion      s     py     pz     px    dxy    dyz    dz2    dxz    dx2    tot
  1  0.081  0.093  0.093  0.093  0.000  0.000  0.000  0.000  0.000  0.359

band   3 # energy   18.57977657 # occ.  0.00000000

ion      s     py     pz     px    dxy    dyz    dz2    dxz    dx2    tot
  1  0.000  0.081  0.323  0.081  0.000  0.000  0.000  0.000  0.000  0.485

band   4 # energy   18.57994966 # occ.  0.00000000

ion      s     py     pz     px    dxy    dyz    dz2    dxz    dx2    tot
  1  0.000  0.242  0.000  0.243  0.000  0.000  0.000  0.000  0.000  0.485

band   5 # energy   22.80116483 # occ.  0.00000000

ion      s     py     pz     px    dxy    dyz    dz2    dxz    dx2    tot
  1  0.136  0.035  0.035  0.035  0.000  0.000  0.000  0.000  0.000  0.242

band   6 # energy   23.39340316 # occ.  0.00000000

ion      s     py     pz     px    dxy    dyz    dz2    dxz    dx2    tot
  1  0.000  0.025  0.100  0.025  0.000  0.000  0.000  0.000  0.000  0.150

band   7 # energy   23.39413003 # occ.  0.00000000

ion      s     py     pz     px    dxy    dyz    dz2    dxz    dx2    tot
  1  0.000  0.075  0.000  0.075  0.000  0.000  0.000  0.000  0.000  0.150

band   8 # energy   27.58638187 # occ.  0.00000000

ion      s     py     pz     px    dxy    dyz    dz2    dxz    dx2    tot
  1  0.000  0.014  0.034  0.018  0.000  0.000  0.000  0.000  0.000  0.065


 k-point    7 :    0.28571429 0.00000000 0.00000000     weight = 0.00086384

band   1 # energy   -2.05396421 # occ.  2.00000000

ion      s     py     pz     px    dxy    dyz    dz2    dxz    dx2    tot
  1  0.336  0.018  0.018  0.018  0.000  0.000  0.000  0.000  0.000  0.389

band   2 # energy    9.76748786 # occ.  1.15492959

ion      s     py     pz     px    dxy    dyz    dz2    dxz    dx2    tot
  1  0.102  0.087  0.087  0.087  0.000  0.000  0.000  0.000  0.000  0.363

band   3 # energy   18.36317621 # occ.  0.00000000

ion      s     py     pz     px    dxy    dyz    dz2    dxz    dx2    tot
  1  0.000  0.084  0.336  0.084  0.000  0.000  0.000  0.000  0.000  0.504

band   4 # energy   18.36334704 # occ.  0.00000000

ion      s     py     pz     px    dxy    dyz    dz2    dxz    dx2    tot
  1  0.000  0.252  0.000  0.252  0.000  0.000  0.000  0.000  0.000  0.504

band   5 # energy   22.68907761 # occ.  0.00000000

ion      s     py     pz     px    dxy    dyz    dz2    dxz    dx2    tot
  1  0.000  0.020  0.077  0.019  0.000  0.000  0.000  0.000  0.000  0.116

band   6 # energy   22.68973999 # occ.  0.00000000

ion      s     py     pz     px    dxy    dyz    dz2    dxz    dx2    tot
  1  0.000  0.058  0.000  0.058  0.000  0.000  0.000  0.000  0.000  0.116

band   7 # energy   22.74914118 # occ.  0.00000000

ion      s     py     pz     px    dxy    dyz    dz2    dxz    dx2    tot
  1  0.167  0.022  0.023  0.022  0.000  0.000  0.000  0.000  0.000  0.235

band   8 # energy   27.79828516 # occ.  0.00000000

ion      s     py     pz     px    dxy    dyz    dz2    dxz    dx2    tot
  1  0.012  0.029  0.029  0.029  0.000  0.000  0.000  0.000  0.000  0.100


 k-point    8 :    0.33333333 0.00000000 0.00000000     weight = 0.00086384

band   1 # energy   -1.22138912 # occ.  2.00000000

ion      s     py     pz     px    dxy    dyz    dz2    dxz    dx2    tot
  1  0.322  0.024  0.024  0.024  0.000  0.000  0.000  0.000  0.000  0.393

band   2 # energy    8.01505680 # occ.  2.00000000

ion      s     py     pz     px    dxy    dyz    dz2    dxz    dx2    tot
  1  0.122  0.081  0.081  0.081  0.000  0.000  0.000  0.000  0.000  0.366

band   3 # energy   18.23811295 # occ.  0.00000000

ion      s     py     pz     px    dxy    dyz    dz2    dxz    dx2    tot
  1  0.000  0.089  0.353  0.088  0.000  0.000  0.000  0.000  0.000  0.530

band   4 # energy   18.23826360 # occ.  0.00000000

ion      s     py     pz     px    dxy    dyz    dz2    dxz    dx2    tot
  1  0.000  0.265  0.000  0.265  0.000  0.000  0.000  0.000  0.000  0.530

band   5 # energy   22.00269877 # occ.  0.00000000

ion      s     py     pz     px    dxy    dyz    dz2    dxz    dx2    tot
  1  0.000  0.014  0.056  0.014  0.000  0.000  0.000  0.000  0.000  0.084

band   6 # energy   22.00326229 # occ.  0.00000000

ion      s     py     pz     px    dxy    dyz    dz2    dxz    dx2    tot
  1  0.000  0.042  0.000  0.042  0.000  0.000  0.000  0.000  0.000  0.084

band   7 # energy   22.77046685 # occ.  0.00000000

ion      s     py     pz     px    dxy    dyz    dz2    dxz    dx2    tot
  1  0.195  0.013  0.013  0.013  0.000  0.000  0.000  0.000  0.000  0.235

band   8 # energy   27.00852009 # occ.  0.00000000

ion      s     py     pz     px    dxy    dyz    dz2    dxz    dx2    tot
  1  0.017  0.022  0.022  0.022  0.000  0.000  0.000  0.000  0.000  0.082


 k-point    9 :    0.38095238 0.00000000 0.00000000     weight = 0.00086384

band   1 # energy   -0.26705509 # occ.  2.00000000

ion      s     py     pz     px    dxy    dyz    dz2    dxz    dx2    tot
  1  0.309  0.029  0.029  0.029  0.000  0.000  0.000  0.000  0.000  0.396

band   2 # energy    6.36548329 # occ.  2.00000000

ion      s     py     pz     px    dxy    dyz    dz2    dxz    dx2    tot
  1  0.140  0.076  0.076  0.076  0.000  0.000  0.000  0.000  0.000  0.369

band   3 # energy   18.18209277 # occ.  0.00000000

ion      s     py     pz     px    dxy    dyz    dz2    dxz    dx2    tot
  1  0.000  0.094  0.374  0.093  0.000  0.000  0.000  0.000  0.000  0.560

band   4 # energy   18.18223206 # occ.  0.00000000

ion      s     py     pz     px    dxy    dyz    dz2    dxz    dx2    tot
  1  0.000  0.280  0.000  0.281  0.000  0.000  0.000  0.000  0.000  0.561

band   5 # energy   21.42091979 # occ.  0.00000000

ion      s     py     pz     px    dxy    dyz    dz2    dxz    dx2    tot
  1  0.000  0.009  0.037  0.009  0.000  0.000  0.000  0.000  0.000  0.055

band   6 # energy   21.42147900 # occ.  0.00000000

ion      s     py     pz     px    dxy    dyz    dz2    dxz    dx2    tot
  1  0.000  0.028  0.000  0.028  0.000  0.000  0.000  0.000  0.000  0.055

band   7 # energy   22.83117733 # occ.  0.00000000

ion      s     py     pz     px    dxy    dyz    dz2    dxz    dx2    tot
  1  0.220  0.007  0.007  0.007  0.000  0.000  0.000  0.000  0.000  0.241

band   8 # energy   26.34003839 # occ.  0.00000000

ion      s     py     pz     px    dxy    dyz    dz2    dxz    dx2    tot
  1  0.017  0.015  0.015  0.015  0.000  0.000  0.000  0.000  0.000  0.063


 k-point   10 :    0.42857143 0.00000000 0.00000000     weight = 0.00086384

band   1 # energy    0.80127062 # occ.  2.00000000

ion      s     py     pz     px    dxy    dyz    dz2    dxz    dx2    tot
  1  0.303  0.032  0.032  0.032  0.000  0.000  0.000  0.000  0.000  0.400

band   2 # energy    4.83076222 # occ.  2.00000000

ion      s     py     pz     px    dxy    dyz    dz2    dxz    dx2    tot
  1  0.149  0.073  0.073  0.073  0.000  0.000  0.000  0.000  0.000  0.368

band   3 # energy   18.17590249 # occ.  0.00000000

ion      s     py     pz     px    dxy    dyz    dz2    dxz    dx2    tot
  1  0.000  0.099  0.395  0.099  0.000  0.000  0.000  0.000  0.000  0.593

band   4 # energy   18.17602637 # occ.  0.00000000

ion      s     py     pz     px    dxy    dyz    dz2    dxz    dx2    tot
  1  0.000  0.296  0.000  0.297  0.000  0.000  0.000  0.000  0.000  0.593

band   5 # energy   20.99351074 # occ.  0.00000000

ion      s     py     pz     px    dxy    dyz    dz2    dxz    dx2    tot
  1  0.000  0.004  0.017  0.004  0.000  0.000  0.000  0.000  0.000  0.025

band   6 # energy   20.99407563 # occ.  0.00000000

ion      s     py     pz     px    dxy    dyz    dz2    dxz    dx2    tot
  1  0.000  0.013  0.000  0.013  0.000  0.000  0.000  0.000  0.000  0.025

band   7 # energy   22.90627835 # occ.  0.00000000

ion      s     py     pz     px    dxy    dyz    dz2    dxz    dx2    tot
  1  0.245  0.002  0.002  0.002  0.000  0.000  0.000  0.000  0.000  0.252

band   8 # energy   25.83787721 # occ.  0.00000000

ion      s     py     pz     px    dxy    dyz    dz2    dxz    dx2    tot
  1  0.010  0.011  0.011  0.011  0.000  0.000  0.000  0.000  0.000  0.042


 k-point   11 :    0.47619048 0.00000000 0.00000000     weight = 0.00086384

band   1 # energy    1.94147779 # occ.  2.00000000

ion      s     py     pz     px    dxy    dyz    dz2    dxz    dx2    tot
  1  0.349  0.024  0.024  0.024  0.000  0.000  0.000  0.000  0.000  0.420

band   2 # energy    3.45735545 # occ.  2.00000000

ion      s     py     pz     px    dxy    dyz    dz2    dxz    dx2    tot
  1  0.105  0.082  0.082  0.082  0.000  0.000  0.000  0.000  0.000  0.351

band   3 # energy   18.18694603 # occ.  0.00000000

ion      s     py     pz     px    dxy    dyz    dz2    dxz    dx2    tot
  1  0.000  0.103  0.411  0.102  0.000  0.000  0.000  0.000  0.000  0.616

band   4 # energy   18.18706115 # occ.  0.00000000

ion      s     py     pz     px    dxy    dyz    dz2    dxz    dx2    tot
  1  0.000  0.308  0.000  0.308  0.000  0.000  0.000  0.000  0.000  0.616

band   5 # energy   20.76395680 # occ.  0.00000000

ion      s     py     pz     px    dxy    dyz    dz2    dxz    dx2    tot
  1  0.000  0.001  0.002  0.001  0.000  0.000  0.000  0.000  0.000  0.003

band   6 # energy   20.76452717 # occ.  0.00000000

ion      s     py     pz     px    dxy    dyz    dz2    dxz    dx2    tot
  1  0.000  0.002  0.000  0.002  0.000  0.000  0.000  0.000  0.000  0.003

band   7 # energy   22.97040275 # occ.  0.00000000

ion      s     py     pz     px    dxy    dyz    dz2    dxz    dx2    tot
  1  0.261  0.000  0.000  0.000  0.000  0.000  0.000  0.000  0.000  0.262

band   8 # energy   25.56053273 # occ.  0.00000000

ion      s     py     pz     px    dxy    dyz    dz2    dxz    dx2    tot
  1  0.001  0.008  0.008  0.008  0.000  0.000  0.000  0.000  0.000  0.027


 k-point   12 :    0.04761905 0.04761905 0.00000000     weight = 0.00064788

band   1 # energy   -4.29153051 # occ.  2.00000000

ion      s     py     pz     px    dxy    dyz    dz2    dxz    dx2    tot
  1  0.383  0.002  0.000  0.000  0.000  0.000  0.000  0.000  0.000  0.385

band   2 # energy   19.68993084 # occ.  0.00000000

ion      s     py     pz     px    dxy    dyz    dz2    dxz    dx2    tot
  1  0.000  0.000  0.234  0.234  0.000  0.000  0.000  0.000  0.000  0.467

band   3 # energy   19.69004811 # occ.  0.00000000

ion      s     py     pz     px    dxy    dyz    dz2    dxz    dx2    tot
  1  0.000  0.000  0.234  0.234  0.000  0.000  0.000  0.000  0.000  0.467

band   4 # energy   20.48567787 # occ.  0.00000000

ion      s     py     pz     px    dxy    dyz    dz2    dxz    dx2    tot
  1  0.020  0.659  0.000  0.000  0.000  0.000  0.000  0.000  0.000  0.678

band   5 # energy   21.29274731 # occ.  0.00000000

ion      s     py     pz     px    dxy    dyz    dz2    dxz    dx2    tot
  1  0.000  0.000  0.000  0.000  0.000  0.000  0.000  0.000  0.000  0.000

band   6 # energy   22.93292853 # occ.  0.00000000

ion      s     py     pz     px    dxy    dyz    dz2    dxz    dx2    tot
  1  0.000  0.000  0.107  0.107  0.000  0.000  0.000  0.000  0.000  0.214

band   7 # energy   22.93294091 # occ.  0.00000000

ion      s     py     pz     px    dxy    dyz    dz2    dxz    dx2    tot
  1  0.000  0.000  0.107  0.107  0.000  0.000  0.000  0.000  0.000  0.214

band   8 # energy   27.68304943 # occ.  0.00000000

ion      s     py     pz     px    dxy    dyz    dz2    dxz    dx2    tot
  1  0.000  0.001  0.000  0.000  0.000  0.000  0.000  0.000  0.000  0.001


 k-point   13 :    0.09523810 0.04761905 0.00000000     weight = 0.00259151

band   1 # energy   -4.14009818 # occ.  2.00000000

ion      s     py     pz     px    dxy    dyz    dz2    dxz    dx2    tot
  1  0.379  0.005  0.001  0.001  0.000  0.000  0.000  0.000  0.000  0.385

band   2 # energy   18.20012333 # occ.  0.00000000

ion      s     py     pz     px    dxy    dyz    dz2    dxz    dx2    tot
  1  0.015  0.074  0.154  0.154  0.000  0.000  0.000  0.000  0.000  0.397

band   3 # energy   19.06862713 # occ.  0.00000000

ion      s     py     pz     px    dxy    dyz    dz2    dxz    dx2    tot
  1  0.000  0.000  0.222  0.221  0.000  0.000  0.000  0.000  0.000  0.443

band   4 # energy   20.26246806 # occ.  0.00000000

ion      s     py     pz     px    dxy    dyz    dz2    dxz    dx2    tot
  1  0.023  0.483  0.027  0.028  0.000  0.000  0.000  0.000  0.000  0.561

band   5 # energy   21.43855304 # occ.  0.00000000

ion      s     py     pz     px    dxy    dyz    dz2    dxz    dx2    tot
  1  0.001  0.062  0.050  0.050  0.000  0.000  0.000  0.000  0.000  0.162

band   6 # energy   23.53545664 # occ.  0.00000000

ion      s     py     pz     px    dxy    dyz    dz2    dxz    dx2    tot
  1  0.012  0.018  0.100  0.100  0.000  0.000  0.000  0.000  0.000  0.230

band   7 # energy   23.72939050 # occ.  0.00000000

ion      s     py     pz     px    dxy    dyz    dz2    dxz    dx2    tot
  1  0.000  0.000  0.121  0.121  0.000  0.000  0.000  0.000  0.000  0.242

band   8 # energy   26.68070991 # occ.  0.00000000

ion      s     py     pz     px    dxy    dyz    dz2    dxz    dx2    tot
  1  0.002  0.014  0.000  0.000  0.000  0.000  0.000  0.000  0.000  0.016


 k-point   14 :    0.14285714 0.04761905 0.00000000     weight = 0.00259151

band   1 # energy   -3.85904749 # occ.  2.00000000

ion      s     py     pz     px    dxy    dyz    dz2    dxz    dx2    tot
  1  0.373  0.009  0.002  0.002  0.000  0.000  0.000  0.000  0.000  0.386

band   2 # energy   16.24805681 # occ.  0.00000000

ion      s     py     pz     px    dxy    dyz    dz2    dxz    dx2    tot
  1  0.034  0.083  0.126  0.126  0.000  0.000  0.000  0.000  0.000  0.368

band   3 # energy   18.53347759 # occ.  0.00000000

ion      s     py     pz     px    dxy    dyz    dz2    dxz    dx2    tot
  1  0.000  0.000  0.219  0.219  0.000  0.000  0.000  0.000  0.000  0.438

band   4 # energy   19.80859647 # occ.  0.00000000

ion      s     py     pz     px    dxy    dyz    dz2    dxz    dx2    tot
  1  0.026  0.409  0.029  0.029  0.000  0.000  0.000  0.000  0.000  0.492

band   5 # energy   22.10196395 # occ.  0.00000000

ion      s     py     pz     px    dxy    dyz    dz2    dxz    dx2    tot
  1  0.000  0.093  0.091  0.091  0.000  0.000  0.000  0.000  0.000  0.275

band   6 # energy   23.79407541 # occ.  0.00000000

ion      s     py     pz     px    dxy    dyz    dz2    dxz    dx2    tot
  1  0.040  0.035  0.065  0.065  0.000  0.000  0.000  0.000  0.000  0.204

band   7 # energy   24.49332183 # occ.  0.00000000

ion      s     py     pz     px    dxy    dyz    dz2    dxz    dx2    tot
  1  0.000  0.000  0.128  0.128  0.000  0.000  0.000  0.000  0.000  0.255

band   8 # energy   25.76441084 # occ.  0.00000000

ion      s     py     pz     px    dxy    dyz    dz2    dxz    dx2    tot
  1  0.003  0.006  0.001  0.001  0.000  0.000  0.000  0.000  0.000  0.010


 k-point   15 :    0.19047619 0.04761905 0.00000000     weight = 0.00259151

band   1 # energy   -3.44916777 # occ.  2.00000000

ion      s     py     pz     px    dxy    dyz    dz2    dxz    dx2    tot
  1  0.364  0.013  0.005  0.005  0.000  0.000  0.000  0.000  0.000  0.387

band   2 # energy   14.25148568 # occ.  0.00000000

ion      s     py     pz     px    dxy    dyz    dz2    dxz    dx2    tot
  1  0.053  0.081  0.112  0.112  0.000  0.000  0.000  0.000  0.000  0.358

band   3 # energy   18.09805049 # occ.  0.00000000

ion      s     py     pz     px    dxy    dyz    dz2    dxz    dx2    tot
  1  0.000  0.000  0.221  0.221  0.000  0.000  0.000  0.000  0.000  0.442

band   4 # energy   19.37314169 # occ.  0.00000000

ion      s     py     pz     px    dxy    dyz    dz2    dxz    dx2    tot
  1  0.029  0.388  0.035  0.035  0.000  0.000  0.000  0.000  0.000  0.487

band   5 # energy   22.50310087 # occ.  0.00000000

ion      s     py     pz     px    dxy    dyz    dz2    dxz    dx2    tot
  1  0.005  0.090  0.095  0.095  0.000  0.000  0.000  0.000  0.000  0.286

band   6 # energy   23.77100907 # occ.  0.00000000

ion      s     py     pz     px    dxy    dyz    dz2    dxz    dx2    tot
  1  0.059  0.037  0.044  0.044  0.000  0.000  0.000  0.000  0.000  0.185

band   7 # energy   24.88249437 # occ.  0.00000000

ion      s     py     pz     px    dxy    dyz    dz2    dxz    dx2    tot
  1  0.000  0.000  0.121  0.121  0.000  0.000  0.000  0.000  0.000  0.243

band   8 # energy   25.36133638 # occ.  0.00000000

ion      s     py     pz     px    dxy    dyz    dz2    dxz    dx2    tot
  1  0.010  0.003  0.004  0.004  0.000  0.000  0.000  0.000  0.000  0.021


 k-point   16 :    0.23809524 0.04761905 0.00000000     weight = 0.00259151

band   1 # energy   -2.91118782 # occ.  2.00000000

ion      s     py     pz     px    dxy    dyz    dz2    dxz    dx2    tot
  1  0.353  0.019  0.008  0.008  0.000  0.000  0.000  0.000  0.000  0.388

band   2 # energy   12.30270933 # occ.  0.00000000

ion      s     py     pz     px    dxy    dyz    dz2    dxz    dx2    tot
  1  0.073  0.077  0.104  0.104  0.000  0.000  0.000  0.000  0.000  0.359

band   3 # energy   17.76737881 # occ.  0.00000000

ion      s     py     pz     px    dxy    dyz    dz2    dxz    dx2    tot
  1  0.000  0.000  0.225  0.225  0.000  0.000  0.000  0.000  0.000  0.450

band   4 # energy   19.00449581 # occ.  0.00000000

ion      s     py     pz     px    dxy    dyz    dz2    dxz    dx2    tot
  1  0.033  0.383  0.043  0.043  0.000  0.000  0.000  0.000  0.000  0.502

band   5 # energy   22.32043357 # occ.  0.00000000

ion      s     py     pz     px    dxy    dyz    dz2    dxz    dx2    tot
  1  0.006  0.081  0.050  0.050  0.000  0.000  0.000  0.000  0.000  0.188

band   6 # energy   23.52516929 # occ.  0.00000000

ion      s     py     pz     px    dxy    dyz    dz2    dxz    dx2    tot
  1  0.085  0.007  0.060  0.060  0.000  0.000  0.000  0.000  0.000  0.213

band   7 # energy   24.56871076 # occ.  0.00000000

ion      s     py     pz     px    dxy    dyz    dz2    dxz    dx2    tot
  1  0.000  0.000  0.097  0.097  0.000  0.000  0.000  0.000  0.000  0.194

band   8 # energy   25.93615200 # occ.  0.00000000

ion      s     py     pz     px    dxy    dyz    dz2    dxz    dx2    tot
  1  0.014  0.020  0.016  0.016  0.000  0.000  0.000  0.000  0.000  0.066


 k-point   17 :    0.28571429 0.04761905 0.00000000     weight = 0.00259151

band   1 # energy   -2.24635963 # occ.  2.00000000

ion      s     py     pz     px    dxy    dyz    dz2    dxz    dx2    tot
  1  0.339  0.025  0.013  0.013  0.000  0.000  0.000  0.000  0.000  0.389

band   2 # energy   10.42591047 # occ.  0.22315157

ion      s     py     pz     px    dxy    dyz    dz2    dxz    dx2    tot
  1  0.094  0.073  0.097  0.097  0.000  0.000  0.000  0.000  0.000  0.361

band   3 # energy   17.54133371 # occ.  0.00000000

ion      s     py     pz     px    dxy    dyz    dz2    dxz    dx2    tot
  1  0.000  0.000  0.230  0.230  0.000  0.000  0.000  0.000  0.000  0.459

band   4 # energy   18.70135229 # occ.  0.00000000

ion      s     py     pz     px    dxy    dyz    dz2    dxz    dx2    tot
  1  0.035  0.388  0.053  0.053  0.000  0.000  0.000  0.000  0.000  0.528

band   5 # energy   21.72746215 # occ.  0.00000000

ion      s     py     pz     px    dxy    dyz    dz2    dxz    dx2    tot
  1  0.003  0.056  0.018  0.018  0.000  0.000  0.000  0.000  0.000  0.095

band   6 # energy   23.37576375 # occ.  0.00000000

ion      s     py     pz     px    dxy    dyz    dz2    dxz    dx2    tot
  1  0.120  0.000  0.063  0.063  0.000  0.000  0.000  0.000  0.000  0.247

band   7 # energy   23.87898968 # occ.  0.00000000

ion      s     py     pz     px    dxy    dyz    dz2    dxz    dx2    tot
  1  0.000  0.000  0.081  0.081  0.000  0.000  0.000  0.000  0.000  0.162

band   8 # energy   26.98689131 # occ.  0.00000000

ion      s     py     pz     px    dxy    dyz    dz2    dxz    dx2    tot
  1  0.008  0.021  0.033  0.033  0.000  0.000  0.000  0.000  0.000  0.094


 k-point   18 :    0.33333333 0.04761905 0.00000000     weight = 0.00259151

band   1 # energy   -1.45590328 # occ.  2.00000000

ion      s     py     pz     px    dxy    dyz    dz2    dxz    dx2    tot
  1  0.325  0.032  0.017  0.017  0.000  0.000  0.000  0.000  0.000  0.391

band   2 # energy    8.64050663 # occ.  2.11924512

ion      s     py     pz     px    dxy    dyz    dz2    dxz    dx2    tot
  1  0.115  0.069  0.091  0.091  0.000  0.000  0.000  0.000  0.000  0.366

band   3 # energy   17.42185726 # occ.  0.00000000

ion      s     py     pz     px    dxy    dyz    dz2    dxz    dx2    tot
  1  0.000  0.000  0.236  0.236  0.000  0.000  0.000  0.000  0.000  0.472

band   4 # energy   18.44556164 # occ.  0.00000000

ion      s     py     pz     px    dxy    dyz    dz2    dxz    dx2    tot
  1  0.036  0.397  0.063  0.063  0.000  0.000  0.000  0.000  0.000  0.560

band   5 # energy   21.11513399 # occ.  0.00000000

ion      s     py     pz     px    dxy    dyz    dz2    dxz    dx2    tot
  1  0.003  0.028  0.006  0.006  0.000  0.000  0.000  0.000  0.000  0.043

band   6 # energy   23.14327887 # occ.  0.00000000

ion      s     py     pz     px    dxy    dyz    dz2    dxz    dx2    tot