<?xml version="1.0" encoding="ISO-8859-1"?>
<modeling>
 <generator>
  <i name="program" type="string">vasp </i>
  <i name="version" type="string">5.4.1  </i>
  <i name="subversion" type="string">24Jun15 (build Dec 29 2018 13:36:09) complex                          parallel </i>
  <i name="platform" type="string">IFC91_ompi </i>
  <i name="date" type="string">2018 12 29 </i>
  <i name="time" type="string">14:08:51 </i>
 </generator>
 <incar>
  <i type="string" name="SYSTEM"> fcc Si</i>
  <i type="string" name="PREC">normal</i>
  <i name="ENCUT">    240.00000000</i>
  <i type="int" name="ISMEAR">    -5</i>
  <i type="logical" name="LORBIT"> F  </i>
  <v type="int" name="KPOINT_BSE">    -1     0     0     0</v>
 </incar>
 <kpoints>
  <generation param="Monkhorst-Pack">
   <v type="int" name="divisions">      21       21       21 </v>
   <v name="usershift">      0.00000000       0.00000000       0.00000000 </v>
   <v name="genvec1">      0.04761905       0.00000000       0.00000000 </v>
   <v name="genvec2">      0.00000000       0.04761905       0.00000000 </v>
   <v name="genvec3">      0.00000000       0.00000000       0.04761905 </v>
   <v name="shift">      0.00000000       0.00000000       0.00000000 </v>
  </generation>
  <varray name="kpointlist" >
   <v>       0.00000000       0.00000000       0.00000000 </v>
   <v>       0.04761905       0.00000000       0.00000000 </v>
   <v>       0.09523810       0.00000000       0.00000000 </v>
   <v>       0.14285714       0.00000000       0.00000000 </v>
   <v>       0.19047619       0.00000000       0.00000000 </v>
   <v>       0.23809524       0.00000000       0.00000000 </v>
   <v>       0.28571429       0.00000000       0.00000000 </v>
   <v>       0.33333333       0.00000000       0.00000000 </v>
   <v>       0.38095238       0.00000000       0.00000000 </v>
   <v>       0.42857143       0.00000000       0.00000000 </v>
   <v>       0.47619048       0.00000000       0.00000000 </v>
   <v>       0.04761905       0.04761905       0.00000000 </v>
   <v>       0.09523810       0.04761905       0.00000000 </v>
   <v>       0.14285714       0.04761905       0.00000000 </v>
   <v>       0.19047619       0.04761905       0.00000000 </v>
   <v>       0.23809524       0.04761905       0.00000000 </v>
   <v>       0.28571429       0.04761905       0.00000000 </v>
   <v>       0.33333333       0.04761905       0.00000000 </v>
   <v>       0.38095238       0.04761905       0.00000000 </v>
   <v>       0.42857143       0.04761905       0.00000000 </v>
   <v>       0.47619048       0.04761905       0.00000000 </v>
   <v>      -0.47619048       0.04761905       0.00000000 </v>
   <v>      -0.42857143       0.04761905       0.00000000 </v>
   <v>      -0.38095238       0.04761905       0.00000000 </v>
   <v>      -0.33333333       0.04761905       0.00000000 </v>
   <v>      -0.28571429       0.04761905       0.00000000 </v>
   <v>      -0.23809524       0.04761905       0.00000000 </v>
   <v>      -0.19047619       0.04761905       0.00000000 </v>
   <v>      -0.14285714       0.04761905       0.00000000 </v>
   <v>      -0.09523810       0.04761905       0.00000000 </v>
   <v>      -0.04761905       0.04761905       0.00000000 </v>
   <v>       0.09523810       0.09523810       0.00000000 </v>
   <v>       0.14285714       0.09523810       0.00000000 </v>
   <v>       0.19047619       0.09523810       0.00000000 </v>
   <v>       0.23809524       0.09523810       0.00000000 </v>
   <v>       0.28571429       0.09523810       0.00000000 </v>
   <v>       0.33333333       0.09523810       0.00000000 </v>
   <v>       0.38095238       0.09523810       0.00000000 </v>
   <v>       0.42857143       0.09523810       0.00000000 </v>
   <v>       0.47619048       0.09523810       0.00000000 </v>
   <v>      -0.47619048       0.09523810       0.00000000 </v>
   <v>      -0.42857143       0.09523810       0.00000000 </v>
   <v>      -0.38095238       0.09523810       0.00000000 </v>
   <v>      -0.33333333       0.09523810       0.00000000 </v>
   <v>      -0.28571429       0.09523810       0.00000000 </v>
   <v>      -0.23809524       0.09523810       0.00000000 </v>
   <v>      -0.19047619       0.09523810       0.00000000 </v>
   <v>      -0.14285714       0.09523810       0.00000000 </v>
   <v>      -0.09523810       0.09523810       0.00000000 </v>
   <v>       0.14285714       0.14285714       0.00000000 </v>
   <v>       0.19047619       0.14285714       0.00000000 </v>
   <v>       0.23809524       0.14285714       0.00000000 </v>
   <v>       0.28571429       0.14285714       0.00000000 </v>
   <v>       0.33333333       0.14285714       0.00000000 </v>
   <v>       0.38095238       0.14285714       0.00000000 </v>
   <v>       0.42857143       0.14285714       0.00000000 </v>
   <v>       0.47619048       0.14285714       0.00000000 </v>
   <v>      -0.47619048       0.14285714       0.00000000 </v>
   <v>      -0.42857143       0.14285714       0.00000000 </v>
   <v>      -0.38095238       0.14285714       0.00000000 </v>
   <v>      -0.33333333       0.14285714       0.00000000 </v>
   <v>      -0.28571429       0.14285714       0.00000000 </v>
   <v>      -0.23809524       0.14285714       0.00000000 </v>
   <v>      -0.19047619       0.14285714       0.00000000 </v>
   <v>      -0.14285714       0.14285714       0.00000000 </v>
   <v>       0.19047619       0.19047619       0.00000000 </v>
   <v>       0.23809524       0.19047619       0.00000000 </v>
   <v>       0.28571429       0.19047619       0.00000000 </v>
   <v>       0.33333333       0.19047619       0.00000000 </v>
   <v>       0.38095238       0.19047619       0.00000000 </v>
   <v>       0.42857143       0.19047619       0.00000000 </v>
   <v>       0.47619048       0.19047619       0.00000000 </v>
   <v>      -0.47619048       0.19047619       0.00000000 </v>
   <v>      -0.42857143       0.19047619       0.00000000 </v>
   <v>      -0.38095238       0.19047619       0.00000000 </v>
   <v>      -0.33333333       0.19047619       0.00000000 </v>
   <v>      -0.28571429       0.19047619       0.00000000 </v>
   <v>      -0.23809524       0.19047619       0.00000000 </v>
   <v>      -0.19047619       0.19047619       0.00000000 </v>
   <v>       0.23809524       0.23809524       0.00000000 </v>
   <v>       0.28571429       0.23809524       0.00000000 </v>
   <v>       0.33333333       0.23809524       0.00000000 </v>
   <v>       0.38095238       0.23809524       0.00000000 </v>
   <v>       0.42857143       0.23809524       0.00000000 </v>
   <v>       0.47619048       0.23809524       0.00000000 </v>
   <v>      -0.47619048       0.23809524       0.00000000 </v>
   <v>      -0.42857143       0.23809524       0.00000000 </v>
   <v>      -0.38095238       0.23809524       0.00000000 </v>
   <v>      -0.33333333       0.23809524       0.00000000 </v>
   <v>      -0.28571429       0.23809524       0.00000000 </v>
   <v>      -0.23809524       0.23809524       0.00000000 </v>
   <v>       0.28571429       0.28571429       0.00000000 </v>
   <v>       0.33333333       0.28571429       0.00000000 </v>
   <v>       0.38095238       0.28571429       0.00000000 </v>
   <v>       0.42857143       0.28571429       0.00000000 </v>
   <v>       0.47619048       0.28571429       0.00000000 </v>
   <v>      -0.47619048       0.28571429       0.00000000 </v>
   <v>      -0.42857143       0.28571429       0.00000000 </v>
   <v>      -0.38095238       0.28571429       0.00000000 </v>
   <v>      -0.33333333       0.28571429       0.00000000 </v>
   <v>      -0.28571429       0.28571429       0.00000000 </v>
   <v>       0.33333333       0.33333333       0.00000000 </v>
   <v>       0.38095238       0.33333333       0.00000000 </v>
   <v>       0.42857143       0.33333333       0.00000000 </v>
   <v>       0.47619048       0.33333333       0.00000000 </v>
   <v>      -0.47619048       0.33333333       0.00000000 </v>
   <v>      -0.42857143       0.33333333       0.00000000 </v>
   <v>      -0.38095238       0.33333333       0.00000000 </v>
   <v>      -0.33333333       0.33333333       0.00000000 </v>
   <v>       0.38095238       0.38095238       0.00000000 </v>
   <v>       0.42857143       0.38095238       0.00000000 </v>
   <v>       0.47619048       0.38095238       0.00000000 </v>
   <v>      -0.47619048       0.38095238       0.00000000 </v>
   <v>      -0.42857143       0.38095238       0.00000000 </v>
   <v>      -0.38095238       0.38095238       0.00000000 </v>
   <v>       0.42857143       0.42857143       0.00000000 </v>
   <v>       0.47619048       0.42857143       0.00000000 </v>
   <v>      -0.47619048       0.42857143       0.00000000 </v>
   <v>      -0.42857143       0.42857143       0.00000000 </v>
   <v>       0.47619048       0.47619048       0.00000000 </v>
   <v>      -0.47619048       0.47619048       0.00000000 </v>
   <v>       0.14285714       0.09523810       0.04761905 </v>
   <v>       0.19047619       0.09523810       0.04761905 </v>
   <v>       0.23809524       0.09523810       0.04761905 </v>
   <v>       0.28571429       0.09523810       0.04761905 </v>
   <v>       0.33333333       0.09523810       0.04761905 </v>
   <v>       0.38095238       0.09523810       0.04761905 </v>
   <v>       0.42857143       0.09523810       0.04761905 </v>
   <v>       0.47619048       0.09523810       0.04761905 </v>
   <v>      -0.47619048       0.09523810       0.04761905 </v>
   <v>       0.19047619       0.14285714       0.04761905 </v>
   <v>       0.23809524       0.14285714       0.04761905 </v>
   <v>       0.28571429       0.14285714       0.04761905 </v>
   <v>       0.33333333       0.14285714       0.04761905 </v>
   <v>       0.38095238       0.14285714       0.04761905 </v>
   <v>       0.42857143       0.14285714       0.04761905 </v>
   <v>       0.47619048       0.14285714       0.04761905 </v>
   <v>      -0.47619048       0.14285714       0.04761905 </v>
   <v>      -0.42857143       0.14285714       0.04761905 </v>
   <v>      -0.38095238       0.14285714       0.04761905 </v>
   <v>      -0.33333333       0.14285714       0.04761905 </v>
   <v>      -0.28571429       0.14285714       0.04761905 </v>
   <v>      -0.23809524       0.14285714       0.04761905 </v>
   <v>      -0.19047619       0.14285714       0.04761905 </v>
   <v>      -0.14285714       0.14285714       0.04761905 </v>
   <v>      -0.09523810       0.14285714       0.04761905 </v>
   <v>       0.23809524       0.19047619       0.04761905 </v>
   <v>       0.28571429       0.19047619       0.04761905 </v>
   <v>       0.33333333       0.19047619       0.04761905 </v>
   <v>       0.38095238       0.19047619       0.04761905 </v>
   <v>       0.42857143       0.19047619       0.04761905 </v>
   <v>       0.47619048       0.19047619       0.04761905 </v>
   <v>      -0.47619048       0.19047619       0.04761905 </v>
   <v>      -0.42857143       0.19047619       0.04761905 </v>
   <v>      -0.38095238       0.19047619       0.04761905 </v>
   <v>      -0.33333333       0.19047619       0.04761905 </v>
   <v>      -0.28571429       0.19047619       0.04761905 </v>
   <v>      -0.23809524       0.19047619       0.04761905 </v>
   <v>      -0.19047619       0.19047619       0.04761905 </v>
   <v>      -0.14285714       0.19047619       0.04761905 </v>
   <v>       0.28571429       0.23809524       0.04761905 </v>
   <v>       0.33333333       0.23809524       0.04761905 </v>
   <v>       0.38095238       0.23809524       0.04761905 </v>
   <v>       0.42857143       0.23809524       0.04761905 </v>
   <v>       0.47619048       0.23809524       0.04761905 </v>
   <v>      -0.47619048       0.23809524       0.04761905 </v>
   <v>      -0.42857143       0.23809524       0.04761905 </v>
   <v>      -0.38095238       0.23809524       0.04761905 </v>
   <v>      -0.33333333       0.23809524       0.04761905 </v>
   <v>      -0.28571429       0.23809524       0.04761905 </v>
   <v>      -0.23809524       0.23809524       0.04761905 </v>
   <v>      -0.19047619       0.23809524       0.04761905 </v>
   <v>       0.33333333       0.28571429       0.04761905 </v>
   <v>       0.38095238       0.28571429       0.04761905 </v>
   <v>       0.42857143       0.28571429       0.04761905 </v>
   <v>       0.47619048       0.28571429       0.04761905 </v>
   <v>      -0.47619048       0.28571429       0.04761905 </v>
   <v>      -0.42857143       0.28571429       0.04761905 </v>
   <v>      -0.38095238       0.28571429       0.04761905 </v>
   <v>      -0.33333333       0.28571429       0.04761905 </v>
   <v>      -0.28571429       0.28571429       0.04761905 </v>
   <v>      -0.23809524       0.28571429       0.04761905 </v>
   <v>       0.38095238       0.33333333       0.04761905 </v>
   <v>       0.42857143       0.33333333       0.04761905 </v>
   <v>       0.47619048       0.33333333       0.04761905 </v>
   <v>      -0.47619048       0.33333333       0.04761905 </v>
   <v>      -0.42857143       0.33333333       0.04761905 </v>
   <v>      -0.38095238       0.33333333       0.04761905 </v>
   <v>      -0.33333333       0.33333333       0.04761905 </v>
   <v>      -0.28571429       0.33333333       0.04761905 </v>
   <v>       0.42857143       0.38095238       0.04761905 </v>
   <v>       0.47619048       0.38095238       0.04761905 </v>
   <v>      -0.47619048       0.38095238       0.04761905 </v>
   <v>      -0.42857143       0.38095238       0.04761905 </v>
   <v>      -0.38095238       0.38095238       0.04761905 </v>
   <v>      -0.33333333       0.38095238       0.04761905 </v>
   <v>       0.47619048       0.42857143       0.04761905 </v>
   <v>      -0.47619048       0.42857143       0.04761905 </v>
   <v>      -0.42857143       0.42857143       0.04761905 </v>
   <v>      -0.38095238       0.42857143       0.04761905 </v>
   <v>      -0.47619048       0.47619048       0.04761905 </v>
   <v>      -0.42857143       0.47619048       0.04761905 </v>
   <v>       0.28571429       0.19047619       0.09523810 </v>
   <v>       0.33333333       0.19047619       0.09523810 </v>
   <v>       0.38095238       0.19047619       0.09523810 </v>
   <v>       0.42857143       0.19047619       0.09523810 </v>
   <v>       0.47619048       0.19047619       0.09523810 </v>
   <v>      -0.47619048       0.19047619       0.09523810 </v>
   <v>      -0.42857143       0.19047619       0.09523810 </v>
   <v>       0.33333333       0.23809524       0.09523810 </v>
   <v>       0.38095238       0.23809524       0.09523810 </v>
   <v>       0.42857143       0.23809524       0.09523810 </v>
   <v>       0.47619048       0.23809524       0.09523810 </v>
   <v>      -0.47619048       0.23809524       0.09523810 </v>
   <v>      -0.42857143       0.23809524       0.09523810 </v>
   <v>      -0.38095238       0.23809524       0.09523810 </v>
   <v>      -0.33333333       0.23809524       0.09523810 </v>
   <v>      -0.28571429       0.23809524       0.09523810 </v>
   <v>      -0.23809524       0.23809524       0.09523810 </v>
   <v>      -0.19047619       0.23809524       0.09523810 </v>
   <v>      -0.14285714       0.23809524       0.09523810 </v>
   <v>       0.38095238       0.28571429       0.09523810 </v>
   <v>       0.42857143       0.28571429       0.09523810 </v>
   <v>       0.47619048       0.28571429       0.09523810 </v>
   <v>      -0.47619048       0.28571429       0.09523810 </v>
   <v>      -0.42857143       0.28571429       0.09523810 </v>
   <v>      -0.38095238       0.28571429       0.09523810 </v>
   <v>      -0.33333333       0.28571429       0.09523810 </v>
   <v>      -0.28571429       0.28571429       0.09523810 </v>
   <v>      -0.23809524       0.28571429       0.09523810 </v>
   <v>      -0.19047619       0.28571429       0.09523810 </v>
   <v>       0.42857143       0.33333333       0.09523810 </v>
   <v>       0.47619048       0.33333333       0.09523810 </v>
   <v>      -0.47619048       0.33333333       0.09523810 </v>
   <v>      -0.42857143       0.33333333       0.09523810 </v>
   <v>      -0.38095238       0.33333333       0.09523810 </v>
   <v>      -0.33333333       0.33333333       0.09523810 </v>
   <v>      -0.28571429       0.33333333       0.09523810 </v>
   <v>      -0.23809524       0.33333333       0.09523810 </v>
   <v>       0.47619048       0.38095238       0.09523810 </v>
   <v>      -0.47619048       0.38095238       0.09523810 </v>
   <v>      -0.42857143       0.38095238       0.09523810 </v>
   <v>      -0.38095238       0.38095238       0.09523810 </v>
   <v>      -0.33333333       0.38095238       0.09523810 </v>
   <v>      -0.28571429       0.38095238       0.09523810 </v>
   <v>      -0.47619048       0.42857143       0.09523810 </v>
   <v>      -0.42857143       0.42857143       0.09523810 </v>
   <v>      -0.38095238       0.42857143       0.09523810 </v>
   <v>      -0.33333333       0.42857143       0.09523810 </v>
   <v>      -0.42857143       0.47619048       0.09523810 </v>
   <v>      -0.38095238       0.47619048       0.09523810 </v>
   <v>       0.42857143       0.28571429       0.14285714 </v>
   <v>       0.47619048       0.28571429       0.14285714 </v>
   <v>      -0.47619048       0.28571429       0.14285714 </v>
   <v>      -0.42857143       0.28571429       0.14285714 </v>
   <v>      -0.38095238       0.28571429       0.14285714 </v>
   <v>       0.47619048       0.33333333       0.14285714 </v>
   <v>      -0.47619048       0.33333333       0.14285714 </v>
   <v>      -0.42857143       0.33333333       0.14285714 </v>
   <v>      -0.38095238       0.33333333       0.14285714 </v>
   <v>      -0.33333333       0.33333333       0.14285714 </v>
   <v>      -0.28571429       0.33333333       0.14285714 </v>
   <v>      -0.23809524       0.33333333       0.14285714 </v>
   <v>      -0.19047619       0.33333333       0.14285714 </v>
   <v>      -0.47619048       0.38095238       0.14285714 </v>
   <v>      -0.42857143       0.38095238       0.14285714 </v>
   <v>      -0.38095238       0.38095238       0.14285714 </v>
   <v>      -0.33333333       0.38095238       0.14285714 </v>
   <v>      -0.28571429       0.38095238       0.14285714 </v>
   <v>      -0.23809524       0.38095238       0.14285714 </v>
   <v>      -0.42857143       0.42857143       0.14285714 </v>
   <v>      -0.38095238       0.42857143       0.14285714 </v>
   <v>      -0.33333333       0.42857143       0.14285714 </v>
   <v>      -0.28571429       0.42857143       0.14285714 </v>
   <v>      -0.38095238       0.47619048       0.14285714 </v>
   <v>      -0.33333333       0.47619048       0.14285714 </v>
   <v>      -0.42857143       0.38095238       0.19047619 </v>
   <v>      -0.38095238       0.38095238       0.19047619 </v>
   <v>      -0.33333333       0.38095238       0.19047619 </v>
   <v>      -0.38095238       0.42857143       0.19047619 </v>
   <v>      -0.33333333       0.42857143       0.19047619 </v>
   <v>      -0.28571429       0.42857143       0.19047619 </v>
   <v>      -0.23809524       0.42857143       0.19047619 </v>
   <v>      -0.33333333       0.47619048       0.19047619 </v>
   <v>      -0.28571429       0.47619048       0.19047619 </v>
   <v>      -0.28571429       0.47619048       0.23809524 </v>
  </varray>
  <varray name="weights" >
   <v>       0.00010798 </v>
   <v>       0.00086384 </v>
   <v>       0.00086384 </v>
   <v>       0.00086384 </v>
   <v>       0.00086384 </v>
   <v>       0.00086384 </v>
   <v>       0.00086384 </v>
   <v>       0.00086384 </v>
   <v>       0.00086384 </v>
   <v>       0.00086384 </v>
   <v>       0.00086384 </v>
   <v>       0.00064788 </v>
   <v>       0.00259151 </v>
   <v>       0.00259151 </v>
   <v>       0.00259151 </v>
   <v>       0.00259151 </v>
   <v>       0.00259151 </v>
   <v>       0.00259151 </v>
   <v>       0.00259151 </v>
   <v>       0.00259151 </v>
   <v>       0.00259151 </v>
   <v>       0.00259151 </v>
   <v>       0.00259151 </v>
   <v>       0.00259151 </v>
   <v>       0.00259151 </v>
   <v>       0.00259151 </v>
   <v>       0.00259151 </v>
   <v>       0.00259151 </v>
   <v>       0.00259151 </v>
   <v>       0.00259151 </v>
   <v>       0.00129576 </v>
   <v>       0.00064788 </v>
   <v>       0.00259151 </v>
   <v>       0.00259151 </v>
   <v>       0.00259151 </v>
   <v>       0.00259151 </v>
   <v>       0.00259151 </v>
   <v>       0.00259151 </v>
   <v>       0.00259151 </v>
   <v>       0.00259151 </v>
   <v>       0.00259151 </v>
   <v>       0.00259151 </v>
   <v>       0.00259151 </v>
   <v>       0.00259151 </v>
   <v>       0.00259151 </v>
   <v>       0.00259151 </v>
   <v>       0.00259151 </v>
   <v>       0.00259151 </v>
   <v>       0.00129576 </v>
   <v>       0.00064788 </v>
   <v>       0.00259151 </v>
   <v>       0.00259151 </v>
   <v>       0.00259151 </v>
   <v>       0.00259151 </v>
   <v>       0.00259151 </v>
   <v>       0.00259151 </v>
   <v>       0.00259151 </v>
   <v>       0.00259151 </v>
   <v>       0.00259151 </v>
   <v>       0.00259151 </v>
   <v>       0.00259151 </v>
   <v>       0.00259151 </v>
   <v>       0.00259151 </v>
   <v>       0.00259151 </v>
   <v>       0.00129576 </v>
   <v>       0.00064788 </v>
   <v>       0.00259151 </v>
   <v>       0.00259151 </v>
   <v>       0.00259151 </v>
   <v>       0.00259151 </v>
   <v>       0.00259151 </v>
   <v>       0.00259151 </v>
   <v>       0.00259151 </v>
   <v>       0.00259151 </v>
   <v>       0.00259151 </v>
   <v>       0.00259151 </v>
   <v>       0.00259151 </v>
   <v>       0.00259151 </v>
   <v>       0.00129576 </v>
   <v>       0.00064788 </v>
   <v>       0.00259151 </v>
   <v>       0.00259151 </v>
   <v>       0.00259151 </v>
   <v>       0.00259151 </v>
   <v>       0.00259151 </v>
   <v>       0.00259151 </v>
   <v>       0.00259151 </v>
   <v>       0.00259151 </v>
   <v>       0.00259151 </v>
   <v>       0.00259151 </v>
   <v>       0.00129576 </v>
   <v>       0.00064788 </v>
   <v>       0.00259151 </v>
   <v>       0.00259151 </v>
   <v>       0.00259151 </v>
   <v>       0.00259151 </v>
   <v>       0.00259151 </v>
   <v>       0.00259151 </v>
   <v>       0.00259151 </v>
   <v>       0.00259151 </v>
   <v>       0.00129576 </v>
   <v>       0.00064788 </v>
   <v>       0.00259151 </v>
   <v>       0.00259151 </v>
   <v>       0.00259151 </v>
   <v>       0.00259151 </v>
   <v>       0.00259151 </v>
   <v>       0.00259151 </v>
   <v>       0.00129576 </v>
   <v>       0.00064788 </v>
   <v>       0.00259151 </v>
   <v>       0.00259151 </v>
   <v>       0.00259151 </v>
   <v>       0.00259151 </v>
   <v>       0.00129576 </v>
   <v>       0.00064788 </v>
   <v>       0.00259151 </v>
   <v>       0.00259151 </v>
   <v>       0.00129576 </v>
   <v>       0.00064788 </v>
   <v>       0.00129576 </v>
   <v>       0.00259151 </v>
   <v>       0.00518303 </v>
   <v>       0.00518303 </v>
   <v>       0.00518303 </v>
   <v>       0.00518303 </v>
   <v>       0.00518303 </v>
   <v>       0.00518303 </v>
   <v>       0.00518303 </v>
   <v>       0.00518303 </v>
   <v>       0.00259151 </v>
   <v>       0.00518303 </v>
   <v>       0.00518303 </v>
   <v>       0.00518303 </v>
   <v>       0.00518303 </v>
   <v>       0.00518303 </v>
   <v>       0.00518303 </v>
   <v>       0.00518303 </v>
   <v>       0.00518303 </v>
   <v>       0.00518303 </v>
   <v>       0.00518303 </v>
   <v>       0.00518303 </v>
   <v>       0.00518303 </v>
   <v>       0.00518303 </v>
   <v>       0.00518303 </v>
   <v>       0.00259151 </v>
   <v>       0.00259151 </v>
   <v>       0.00518303 </v>
   <v>       0.00518303 </v>
   <v>       0.00518303 </v>
   <v>       0.00518303 </v>
   <v>       0.00518303 </v>
   <v>       0.00518303 </v>
   <v>       0.00518303 </v>
   <v>       0.00518303 </v>
   <v>       0.00518303 </v>
   <v>       0.00518303 </v>
   <v>       0.00518303 </v>
   <v>       0.00518303 </v>
   <v>       0.00259151 </v>
   <v>       0.00259151 </v>
   <v>       0.00518303 </v>
   <v>       0.00518303 </v>
   <v>       0.00518303 </v>
   <v>       0.00518303 </v>
   <v>       0.00518303 </v>
   <v>       0.00518303 </v>
   <v>       0.00518303 </v>
   <v>       0.00518303 </v>
   <v>       0.00518303 </v>
   <v>       0.00518303 </v>
   <v>       0.00259151 </v>
   <v>       0.00259151 </v>
   <v>       0.00518303 </v>
   <v>       0.00518303 </v>
   <v>       0.00518303 </v>
   <v>       0.00518303 </v>
   <v>       0.00518303 </v>
   <v>       0.00518303 </v>
   <v>       0.00518303 </v>
   <v>       0.00518303 </v>
   <v>       0.00259151 </v>
   <v>       0.00259151 </v>
   <v>       0.00518303 </v>
   <v>       0.00518303 </v>
   <v>       0.00518303 </v>
   <v>       0.00518303 </v>
   <v>       0.00518303 </v>
   <v>       0.00518303 </v>
   <v>       0.00259151 </v>
   <v>       0.00259151 </v>
   <v>       0.00518303 </v>
   <v>       0.00518303 </v>
   <v>       0.00518303 </v>
   <v>       0.00518303 </v>
   <v>       0.00259151 </v>
   <v>       0.00259151 </v>
   <v>       0.00518303 </v>
   <v>       0.00518303 </v>
   <v>       0.00259151 </v>
   <v>       0.00259151 </v>
   <v>       0.00259151 </v>
   <v>       0.00259151 </v>
   <v>       0.00518303 </v>
   <v>       0.00518303 </v>
   <v>       0.00518303 </v>
   <v>       0.00518303 </v>
   <v>       0.00518303 </v>
   <v>       0.00518303 </v>
   <v>       0.00259151 </v>
   <v>       0.00518303 </v>
   <v>       0.00518303 </v>
   <v>       0.00518303 </v>
   <v>       0.00518303 </v>
   <v>       0.00518303 </v>
   <v>       0.00518303 </v>
   <v>       0.00518303 </v>
   <v>       0.00518303 </v>
   <v>       0.00518303 </v>
   <v>       0.00518303 </v>
   <v>       0.00259151 </v>
   <v>       0.00259151 </v>
   <v>       0.00518303 </v>
   <v>       0.00518303 </v>
   <v>       0.00518303 </v>
   <v>       0.00518303 </v>
   <v>       0.00518303 </v>
   <v>       0.00518303 </v>
   <v>       0.00518303 </v>
   <v>       0.00518303 </v>
   <v>       0.00259151 </v>
   <v>       0.00259151 </v>
   <v>       0.00518303 </v>
   <v>       0.00518303 </v>
   <v>       0.00518303 </v>
   <v>       0.00518303 </v>
   <v>       0.00518303 </v>
   <v>       0.00518303 </v>
   <v>       0.00259151 </v>
   <v>       0.00259151 </v>
   <v>       0.00518303 </v>
   <v>       0.00518303 </v>
   <v>       0.00518303 </v>
   <v>       0.00518303 </v>
   <v>       0.00259151 </v>
   <v>       0.00259151 </v>
   <v>       0.00518303 </v>
   <v>       0.00518303 </v>
   <v>       0.00259151 </v>
   <v>       0.00259151 </v>
   <v>       0.00259151 </v>
   <v>       0.00259151 </v>
   <v>       0.00518303 </v>
   <v>       0.00518303 </v>
   <v>       0.00518303 </v>
   <v>       0.00518303 </v>
   <v>       0.00259151 </v>
   <v>       0.00518303 </v>
   <v>       0.00518303 </v>
   <v>       0.00518303 </v>
   <v>       0.00518303 </v>
   <v>       0.00518303 </v>
   <v>       0.00518303 </v>
   <v>       0.00259151 </v>
   <v>       0.00259151 </v>
   <v>       0.00518303 </v>
   <v>       0.00518303 </v>
   <v>       0.00518303 </v>
   <v>       0.00518303 </v>
   <v>       0.00259151 </v>
   <v>       0.00259151 </v>
   <v>       0.00518303 </v>
   <v>       0.00518303 </v>
   <v>       0.00259151 </v>
   <v>       0.00259151 </v>
   <v>       0.00259151 </v>
   <v>       0.00259151 </v>
   <v>       0.00518303 </v>
   <v>       0.00518303 </v>
   <v>       0.00259151 </v>
   <v>       0.00518303 </v>
   <v>       0.00518303 </v>
   <v>       0.00259151 </v>
   <v>       0.00259151 </v>
   <v>       0.00259151 </v>
   <v>       0.00259151 </v>
  </varray>
  <varray name="tetrahedronlist"  type="int" >
   <v type="int" >       24        1        2        2       12 </v>
   <v type="int" >       48        2       12       13       31 </v>
   <v type="int" >       48        2        3       13       31 </v>
   <v type="int" >       24        2        2       12       31 </v>
   <v type="int" >       48        3       13       14       30 </v>
   <v type="int" >       48        3        4       14       30 </v>
   <v type="int" >       48        3       13       30       31 </v>
   <v type="int" >       48        4       14       15       29 </v>
   <v type="int" >       48        4        5       15       29 </v>
   <v type="int" >       48        4       14       29       30 </v>
   <v type="int" >       48        5       15       16       28 </v>
   <v type="int" >       48        5        6       16       28 </v>
   <v type="int" >       48        5       15       28       29 </v>
   <v type="int" >       48        6       16       17       27 </v>
   <v type="int" >       48        6        7       17       27 </v>
   <v type="int" >       48        6       16       27       28 </v>
   <v type="int" >       48        7       17       18       26 </v>
   <v type="int" >       48        7        8       18       26 </v>
   <v type="int" >       48        7       17       26       27 </v>
   <v type="int" >       48        8       18       19       25 </v>
   <v type="int" >       48        8        9       19       25 </v>
   <v type="int" >       48        8       18       25       26 </v>
   <v type="int" >       48        9       19       20       24 </v>
   <v type="int" >       48        9       10       20       24 </v>
   <v type="int" >       48        9       19       24       25 </v>
   <v type="int" >       48       10       20       21       23 </v>
   <v type="int" >       48       10       11       21       23 </v>
   <v type="int" >       48       10       20       23       24 </v>
   <v type="int" >       48       11       21       22       22 </v>
   <v type="int" >       24       11       11       22       22 </v>
   <v type="int" >       48       11       21       22       23 </v>
   <v type="int" >       24       12       13       13       32 </v>
   <v type="int" >       24       12       13       13       31 </v>
   <v type="int" >       48       13       32       33      122 </v>
   <v type="int" >       48       13       14       33      122 </v>
   <v type="int" >       48       13       14       30      122 </v>
   <v type="int" >       24       13       13       32      122 </v>
   <v type="int" >       24       13       13       31      122 </v>
   <v type="int" >       48       13       30       31      122 </v>
   <v type="int" >       48       14       33       34      123 </v>
   <v type="int" >       48       14       15       34      123 </v>
   <v type="int" >       48       14       15       29      123 </v>
   <v type="int" >       48       14       33      122      123 </v>
   <v type="int" >       48       14       30      122      123 </v>
   <v type="int" >       48       14       29       30      123 </v>
   <v type="int" >       48       15       34       35      124 </v>
   <v type="int" >       48       15       16       35      124 </v>
   <v type="int" >       48       15       16       28      124 </v>
   <v type="int" >       48       15       34      123      124 </v>
   <v type="int" >       48       15       29      123      124 </v>
   <v type="int" >       48       15       28       29      124 </v>
   <v type="int" >       48       16       35       36      125 </v>
   <v type="int" >       48       16       17       36      125 </v>
   <v type="int" >       48       16       17       27      125 </v>
   <v type="int" >       48       16       35      124      125 </v>
   <v type="int" >       48       16       28      124      125 </v>
   <v type="int" >       48       16       27       28      125 </v>
   <v type="int" >       48       17       36       37      126 </v>
   <v type="int" >       48       17       18       37      126 </v>
   <v type="int" >       48       17       18       26      126 </v>
   <v type="int" >       48       17       36      125      126 </v>
   <v type="int" >       48       17       27      125      126 </v>
   <v type="int" >       48       17       26       27      126 </v>
   <v type="int" >       48       18       37       38      127 </v>
   <v type="int" >       48       18       19       38      127 </v>
   <v type="int" >       48       18       19       25      127 </v>
   <v type="int" >       48       18       37      126      127 </v>
   <v type="int" >       48       18       26      126      127 </v>
   <v type="int" >       48       18       25       26      127 </v>
   <v type="int" >       48       19       38       39      128 </v>
   <v type="int" >       48       19       20       39      128 </v>
   <v type="int" >       48       19       20       24      128 </v>
   <v type="int" >       48       19       38      127      128 </v>
   <v type="int" >       48       19       25      127      128 </v>
   <v type="int" >       48       19       24       25      128 </v>
   <v type="int" >       48       20       39       40      129 </v>
   <v type="int" >       48       20       21       40      129 </v>
   <v type="int" >       48       20       21       23      129 </v>
   <v type="int" >       48       20       39      128      129 </v>
   <v type="int" >       48       20       24      128      129 </v>
   <v type="int" >       48       20       23       24      129 </v>
   <v type="int" >       48       21       40       41      130 </v>
   <v type="int" >       48       21       22       41      130 </v>
   <v type="int" >       48       21       22       22      130 </v>
   <v type="int" >       48       21       40      129      130 </v>
   <v type="int" >       48       21       23      129      130 </v>
   <v type="int" >       48       21       22       23      130 </v>
   <v type="int" >       48       22       41       42      130 </v>
   <v type="int" >       48       22       23       42      130 </v>
   <v type="int" >       48       22       41      130      130 </v>
   <v type="int" >       24       22       22      130      130 </v>
   <v type="int" >       48       23       42       43      129 </v>
   <v type="int" >       48       23       24       43      129 </v>
   <v type="int" >       48       23       42      129      130 </v>
   <v type="int" >       48       24       43       44      128 </v>
   <v type="int" >       48       24       25       44      128 </v>
   <v type="int" >       48       24       43      128      129 </v>
   <v type="int" >       48       25       44       45      127 </v>
   <v type="int" >       48       25       26       45      127 </v>
   <v type="int" >       48       25       44      127      128 </v>
   <v type="int" >       48       26       45       46      126 </v>
   <v type="int" >       48       26       27       46      126 </v>
   <v type="int" >       48       26       45      126      127 </v>
   <v type="int" >       48       27       46       47      125 </v>
   <v type="int" >       48       27       28       47      125 </v>
   <v type="int" >       48       27       46      125      126 </v>
   <v type="int" >       48       28       47       48      124 </v>
   <v type="int" >       48       28       29       48      124 </v>
   <v type="int" >       48       28       47      124      125 </v>
   <v type="int" >       48       29       48       49      123 </v>
   <v type="int" >       48       29       30       49      123 </v>
   <v type="int" >       48       29       48      123      124 </v>
   <v type="int" >       24       30       30       49      122 </v>
   <v type="int" >       24       30       30       31      122 </v>
   <v type="int" >       48       30       49      122      123 </v>
   <v type="int" >       24       32       33       33       50 </v>
   <v type="int" >       24       32       33       33      122 </v>
   <v type="int" >       48       33       50       51      131 </v>
   <v type="int" >       48       33       34       51      131 </v>
   <v type="int" >       48       33       34      123      131 </v>
   <v type="int" >       24       33       33       50      131 </v>
   <v type="int" >       24       33       33      122      131 </v>
   <v type="int" >       48       33      122      123      131 </v>
   <v type="int" >       48       34       51       52      132 </v>
   <v type="int" >       48       34       35       52      132 </v>
   <v type="int" >       48       34       35      124      132 </v>
   <v type="int" >       48       34       51      131      132 </v>
   <v type="int" >       48       34      123      131      132 </v>
   <v type="int" >       48       34      123      124      132 </v>
   <v type="int" >       48       35       52       53      133 </v>
   <v type="int" >       48       35       36       53      133 </v>
   <v type="int" >       48       35       36      125      133 </v>
   <v type="int" >       48       35       52      132      133 </v>
   <v type="int" >       48       35      124      132      133 </v>
   <v type="int" >       48       35      124      125      133 </v>
   <v type="int" >       48       36       53       54      134 </v>
   <v type="int" >       48       36       37       54      134 </v>
   <v type="int" >       48       36       37      126      134 </v>
   <v type="int" >       48       36       53      133      134 </v>
   <v type="int" >       48       36      125      133      134 </v>
   <v type="int" >       48       36      125      126      134 </v>
   <v type="int" >       48       37       54       55      135 </v>
   <v type="int" >       48       37       38       55      135 </v>
   <v type="int" >       48       37       38      127      135 </v>
   <v type="int" >       48       37       54      134      135 </v>
   <v type="int" >       48       37      126      134      135 </v>
   <v type="int" >       48       37      126      127      135 </v>
   <v type="int" >       48       38       55       56      136 </v>
   <v type="int" >       48       38       39       56      136 </v>
   <v type="int" >       48       38       39      128      136 </v>
   <v type="int" >       48       38       55      135      136 </v>
   <v type="int" >       48       38      127      135      136 </v>
   <v type="int" >       48       38      127      128      136 </v>
   <v type="int" >       48       39       56       57      137 </v>
   <v type="int" >       48       39       40       57      137 </v>
   <v type="int" >       48       39       40      129      137 </v>
   <v type="int" >       48       39       56      136      137 </v>
   <v type="int" >       48       39      128      136      137 </v>
   <v type="int" >       48       39      128      129      137 </v>
   <v type="int" >       48       40       57       58      138 </v>
   <v type="int" >       48       40       41       58      138 </v>
   <v type="int" >       48       40       41      130      138 </v>
   <v type="int" >       48       40       57      137      138 </v>
   <v type="int" >       48       40      129      137      138 </v>
   <v type="int" >       48       40      129      130      138 </v>
   <v type="int" >       48       41       58       59      139 </v>
   <v type="int" >       48       41       42       59      139 </v>
   <v type="int" >       48       41       42      130      139 </v>
   <v type="int" >       48       41       58      138      139 </v>
   <v type="int" >       48       41      130      138      139 </v>
   <v type="int" >       48       41      130      130      139 </v>
   <v type="int" >       48       42       59       60      140 </v>
   <v type="int" >       48       42       43       60      140 </v>
   <v type="int" >       48       42       43      129      140 </v>
   <v type="int" >       48       42       59      139      140 </v>
   <v type="int" >       48       42      130      139      140 </v>
   <v type="int" >       48       42      129      130      140 </v>
   <v type="int" >       48       43       60       61      141 </v>
   <v type="int" >       48       43       44       61      141 </v>
   <v type="int" >       48       43       44      128      141 </v>
   <v type="int" >       48       43       60      140      141 </v>
   <v type="int" >       48       43      129      140      141 </v>
   <v type="int" >       48       43      128      129      141 </v>
   <v type="int" >       48       44       61       62      142 </v>
   <v type="int" >       48       44       45       62      142 </v>
   <v type="int" >       48       44       45      127      142 </v>
   <v type="int" >       48       44       61      141      142 </v>
   <v type="int" >       48       44      128      141      142 </v>
   <v type="int" >       48       44      127      128      142 </v>
   <v type="int" >       48       45       62       63      143 </v>
   <v type="int" >       48       45       46       63      143 </v>
   <v type="int" >       48       45       46      126      143 </v>
   <v type="int" >       48       45       62      142      143 </v>
   <v type="int" >       48       45      127      142      143 </v>
   <v type="int" >       48       45      126      127      143 </v>
   <v type="int" >       48       46       63       64      144 </v>
   <v type="int" >       48       46       47       64      144 </v>
   <v type="int" >       48       46       47      125      144 </v>
   <v type="int" >       48       46       63      143      144 </v>
   <v type="int" >       48       46      126      143      144 </v>
   <v type="int" >       48       46      125      126      144 </v>
   <v type="int" >       48       47       64       65      145 </v>
   <v type="int" >       48       47       48       65      145 </v>
   <v type="int" >       48       47       48      124      145 </v>
   <v type="int" >       48       47       64      144      145 </v>
   <v type="int" >       48       47      125      144      145 </v>
   <v type="int" >       48       47      124      125      145 </v>
   <v type="int" >       24       48       48       65      146 </v>
   <v type="int" >       24       48       48       49      146 </v>
   <v type="int" >       48       48       49      123      146 </v>
   <v type="int" >       48       48       65      145      146 </v>
   <v type="int" >       48       48      124      145      146 </v>
   <v type="int" >       48       48      123      124      146 </v>
   <v type="int" >       24       49      123      123      146 </v>
   <v type="int" >       24       49      122      123      123 </v>
   <v type="int" >       24       50       51       51       66 </v>
   <v type="int" >       24       50       51       51      131 </v>
   <v type="int" >       48       51       66       67      147 </v>
   <v type="int" >       48       51       52       67      147 </v>
   <v type="int" >       48       51       52      132      147 </v>
   <v type="int" >       24       51       51       66      147 </v>
   <v type="int" >       24       51       51      131      147 </v>
   <v type="int" >       48       51      131      132      147 </v>
   <v type="int" >       48       52       67       68      148 </v>
   <v type="int" >       48       52       53       68      148 </v>
   <v type="int" >       48       52       53      133      148 </v>
   <v type="int" >       48       52       67      147      148 </v>
   <v type="int" >       48       52      132      147      148 </v>
   <v type="int" >       48       52      132      133      148 </v>
   <v type="int" >       48       53       68       69      149 </v>
   <v type="int" >       48       53       54       69      149 </v>
   <v type="int" >       48       53       54      134      149 </v>
   <v type="int" >       48       53       68      148      149 </v>
   <v type="int" >       48       53      133      148      149 </v>
   <v type="int" >       48       53      133      134      149 </v>
   <v type="int" >       48       54       69       70      150 </v>
   <v type="int" >       48       54       55       70      150 </v>
   <v type="int" >       48       54       55      135      150 </v>
   <v type="int" >       48       54       69      149      150 </v>
   <v type="int" >       48       54      134      149      150 </v>
   <v type="int" >       48       54      134      135      150 </v>
   <v type="int" >       48       55       70       71      151 </v>
   <v type="int" >       48       55       56       71      151 </v>
   <v type="int" >       48       55       56      136      151 </v>
   <v type="int" >       48       55       70      150      151 </v>
   <v type="int" >       48       55      135      150      151 </v>
   <v type="int" >       48       55      135      136      151 </v>
   <v type="int" >       48       56       71       72      152 </v>
   <v type="int" >       48       56       57       72      152 </v>
   <v type="int" >       48       56       57      137      152 </v>
   <v type="int" >       48       56       71      151      152 </v>
   <v type="int" >       48       56      136      151      152 </v>
   <v type="int" >       48       56      136      137      152 </v>
   <v type="int" >       48       57       72       73      153 </v>
   <v type="int" >       48       57       58       73      153 </v>
   <v type="int" >       48       57       58      138      153 </v>
   <v type="int" >       48       57       72      152      153 </v>
   <v type="int" >       48       57      137      152      153 </v>
   <v type="int" >       48       57      137      138      153 </v>
   <v type="int" >       48       58       73       74      154 </v>
   <v type="int" >       48       58       59       74      154 </v>
   <v type="int" >       48       58       59      139      154 </v>
   <v type="int" >       48       58       73      153      154 </v>
   <v type="int" >       48       58      138      153      154 </v>
   <v type="int" >       48       58      138      139      154 </v>
   <v type="int" >       48       59       74       75      155 </v>
   <v type="int" >       48       59       60       75      155 </v>
   <v type="int" >       48       59       60      140      155 </v>
   <v type="int" >       48       59       74      154      155 </v>
   <v type="int" >       48       59      139      154      155 </v>
   <v type="int" >       48       59      139      140      155 </v>
   <v type="int" >       48       60       75       76      156 </v>
   <v type="int" >       48       60       61       76      156 </v>
   <v type="int" >       48       60       61      141      156 </v>
   <v type="int" >       48       60       75      155      156 </v>
   <v type="int" >       48       60      140      155      156 </v>
   <v type="int" >       48       60      140      141      156 </v>
   <v type="int" >       48       61       76       77      157 </v>
   <v type="int" >       48       61       62       77      157 </v>
   <v type="int" >       48       61       62      142      157 </v>
   <v type="int" >       48       61       76      156      157 </v>
   <v type="int" >       48       61      141      156      157 </v>
   <v type="int" >       48       61      141      142      157 </v>
   <v type="int" >       48       62       77       78      158 </v>
   <v type="int" >       48       62       63       78      158 </v>
   <v type="int" >       48       62       63      143      158 </v>
   <v type="int" >       48       62       77      157      158 </v>
   <v type="int" >       48       62      142      157      158 </v>
   <v type="int" >       48       62      142      143      158 </v>
   <v type="int" >       48       63       78       79      159 </v>
   <v type="int" >       48       63       64       79      159 </v>
   <v type="int" >       48       63       64      144      159 </v>
   <v type="int" >       48       63       78      158      159 </v>
   <v type="int" >       48       63      143      158      159 </v>
   <v type="int" >       48       63      143      144      159 </v>
   <v type="int" >       24       64       64       79      160 </v>
   <v type="int" >       24       64       64       65      160 </v>
   <v type="int" >       48       64       65      145      160 </v>
   <v type="int" >       48       64       79      159      160 </v>
   <v type="int" >       48       64      144      159      160 </v>
   <v type="int" >       48       64      144      145      160 </v>
   <v type="int" >       24       65      145      145      160 </v>
   <v type="int" >       24       65      145      145      146 </v>
   <v type="int" >       24       66       67       67       80 </v>
   <v type="int" >       24       66       67       67      147 </v>
   <v type="int" >       48       67       80       81      161 </v>
   <v type="int" >       48       67       68       81      161 </v>
   <v type="int" >       48       67       68      148      161 </v>
   <v type="int" >       24       67       67       80      161 </v>
   <v type="int" >       24       67       67      147      161 </v>
   <v type="int" >       48       67      147      148      161 </v>
   <v type="int" >       48       68       81       82      162 </v>
   <v type="int" >       48       68       69       82      162 </v>
   <v type="int" >       48       68       69      149      162 </v>
   <v type="int" >       48       68       81      161      162 </v>
   <v type="int" >       48       68      148      161      162 </v>
   <v type="int" >       48       68      148      149      162 </v>
   <v type="int" >       48       69       82       83      163 </v>
   <v type="int" >       48       69       70       83      163 </v>
   <v type="int" >       48       69       70      150      163 </v>
   <v type="int" >       48       69       82      162      163 </v>
   <v type="int" >       48       69      149      162      163 </v>
   <v type="int" >       48       69      149      150      163 </v>
   <v type="int" >       48       70       83       84      164 </v>
   <v type="int" >       48       70       71       84      164 </v>
   <v type="int" >       48       70       71      151      164 </v>
   <v type="int" >       48       70       83      163      164 </v>
   <v type="int" >       48       70      150      163      164 </v>
   <v type="int" >       48       70      150      151      164 </v>
   <v type="int" >       48       71       84       85      165 </v>
   <v type="int" >       48       71       72       85      165 </v>
   <v type="int" >       48       71       72      152      165 </v>
   <v type="int" >       48       71       84      164      165 </v>
   <v type="int" >       48       71      151      164      165 </v>
   <v type="int" >       48       71      151      152      165 </v>
   <v type="int" >       48       72       85       86      166 </v>
   <v type="int" >       48       72       73       86      166 </v>
   <v type="int" >       48       72       73      153      166 </v>
   <v type="int" >       48       72       85      165      166 </v>
   <v type="int" >       48       72      152      165      166 </v>
   <v type="int" >       48       72      152      153      166 </v>
   <v type="int" >       48       73       86       87      167 </v>
   <v type="int" >       48       73       74       87      167 </v>
   <v type="int" >       48       73       74      154      167 </v>
   <v type="int" >       48       73       86      166      167 </v>
   <v type="int" >       48       73      153      166      167 </v>
   <v type="int" >       48       73      153      154      167 </v>
   <v type="int" >       48       74       87       88      168 </v>
   <v type="int" >       48       74       75       88      168 </v>
   <v type="int" >       48       74       75      155      168 </v>
   <v type="int" >       48       74       87      167      168 </v>
   <v type="int" >       48       74      154      167      168 </v>
   <v type="int" >       48       74      154      155      168 </v>
   <v type="int" >       48       75       88       89      169 </v>
   <v type="int" >       48       75       76       89      169 </v>
   <v type="int" >       48       75       76      156      169 </v>
   <v type="int" >       48       75       88      168      169 </v>
   <v type="int" >       48       75      155      168      169 </v>
   <v type="int" >       48       75      155      156      169 </v>
   <v type="int" >       48       76       89       90      170 </v>
   <v type="int" >       48       76       77       90      170 </v>
   <v type="int" >       48       76       77      157      170 </v>
   <v type="int" >       48       76       89      169      170 </v>
   <v type="int" >       48       76      156      169      170 </v>
   <v type="int" >       48       76      156      157      170 </v>
   <v type="int" >       48       77       90       91      171 </v>
   <v type="int" >       48       77       78       91      171 </v>
   <v type="int" >       48       77       78      158      171 </v>
   <v type="int" >       48       77       90      170      171 </v>
   <v type="int" >       48       77      157      170      171 </v>
   <v type="int" >       48       77      157      158      171 </v>
   <v type="int" >       24       78       78       91      172 </v>
   <v type="int" >       24       78       78       79      172 </v>
   <v type="int" >       48       78       79      159      172 </v>
   <v type="int" >       48       78       91      171      172 </v>
   <v type="int" >       48       78      158      171      172 </v>
   <v type="int" >       48       78      158      159      172 </v>
   <v type="int" >       24       79      159      159      172 </v>
   <v type="int" >       24       79      159      159      160 </v>
   <v type="int" >       24       80       81       81       92 </v>
   <v type="int" >       24       80       81       81      161 </v>
   <v type="int" >       48       81       92       93      173 </v>
   <v type="int" >       48       81       82       93      173 </v>
   <v type="int" >       48       81       82      162      173 </v>
   <v type="int" >       24       81       81       92      173 </v>
   <v type="int" >       24       81       81      161      173 </v>
   <v type="int" >       48       81      161      162      173 </v>
   <v type="int" >       48       82       93       94      174 </v>
   <v type="int" >       48       82       83       94      174 </v>
   <v type="int" >       48       82       83      163      174 </v>
   <v type="int" >       48       82       93      173      174 </v>
   <v type="int" >       48       82      162      173      174 </v>
   <v type="int" >       48       82      162      163      174 </v>
   <v type="int" >       48       83       94       95      175 </v>
   <v type="int" >       48       83       84       95      175 </v>
   <v type="int" >       48       83       84      164      175 </v>
   <v type="int" >       48       83       94      174      175 </v>
   <v type="int" >       48       83      163      174      175 </v>
   <v type="int" >       48       83      163      164      175 </v>
   <v type="int" >       48       84       95       96      176 </v>
   <v type="int" >       48       84       85       96      176 </v>
   <v type="int" >       48       84       85      165      176 </v>
   <v type="int" >       48       84       95      175      176 </v>
   <v type="int" >       48       84      164      175      176 </v>
   <v type="int" >       48       84      164      165      176 </v>
   <v type="int" >       48       85       96       97      177 </v>
   <v type="int" >       48       85       86       97      177 </v>
   <v type="int" >       48       85       86      166      177 </v>
   <v type="int" >       48       85       96      176      177 </v>
   <v type="int" >       48       85      165      176      177 </v>
   <v type="int" >       48       85      165      166      177 </v>
   <v type="int" >       48       86       97       98      178 </v>
   <v type="int" >       48       86       87       98      178 </v>
   <v type="int" >       48       86       87      167      178 </v>
   <v type="int" >       48       86       97      177      178 </v>
   <v type="int" >       48       86      166      177      178 </v>
   <v type="int" >       48       86      166      167      178 </v>
   <v type="int" >       48       87       98       99      179 </v>
   <v type="int" >       48       87       88       99      179 </v>
   <v type="int" >       48       87       88      168      179 </v>
   <v type="int" >       48       87       98      178      179 </v>
   <v type="int" >       48       87      167      178      179 </v>
   <v type="int" >       48       87      167      168      179 </v>
   <v type="int" >       48       88       99      100      180 </v>
   <v type="int" >       48       88       89      100      180 </v>
   <v type="int" >       48       88       89      169      180 </v>
   <v type="int" >       48       88       99      179      180 </v>
   <v type="int" >       48       88      168      179      180 </v>
   <v type="int" >       48       88      168      169      180 </v>
   <v type="int" >       48       89      100      101      181 </v>
   <v type="int" >       48       89       90      101      181 </v>
   <v type="int" >       48       89       90      170      181 </v>
   <v type="int" >       48       89      100      180      181 </v>
   <v type="int" >       48       89      169      180      181 </v>
   <v type="int" >       48       89      169      170      181 </v>
   <v type="int" >       24       90       90      101      182 </v>
   <v type="int" >       24       90       90       91      182 </v>
   <v type="int" >       48       90       91      171      182 </v>
   <v type="int" >       48       90      101      181      182 </v>
   <v type="int" >       48       90      170      181      182 </v>
   <v type="int" >       48       90      170      171      182 </v>
   <v type="int" >       24       91      171      171      182 </v>
   <v type="int" >       24       91      171      171      172 </v>
   <v type="int" >       24       92       93       93      102 </v>
   <v type="int" >       24       92       93       93      173 </v>
   <v type="int" >       48       93      102      103      183 </v>
   <v type="int" >       48       93       94      103      183 </v>
   <v type="int" >       48       93       94      174      183 </v>
   <v type="int" >       24       93       93      102      183 </v>
   <v type="int" >       24       93       93      173      183 </v>
   <v type="int" >       48       93      173      174      183 </v>
   <v type="int" >       48       94      103      104      184 </v>
   <v type="int" >       48       94       95      104      184 </v>
   <v type="int" >       48       94       95      175      184 </v>
   <v type="int" >       48       94      103      183      184 </v>
   <v type="int" >       48       94      174      183      184 </v>
   <v type="int" >       48       94      174      175      184 </v>
   <v type="int" >       48       95      104      105      185 </v>
   <v type="int" >       48       95       96      105      185 </v>
   <v type="int" >       48       95       96      176      185 </v>
   <v type="int" >       48       95      104      184      185 </v>
   <v type="int" >       48       95      175      184      185 </v>
   <v type="int" >       48       95      175      176      185 </v>
   <v type="int" >       48       96      105      106      186 </v>
   <v type="int" >       48       96       97      106      186 </v>
   <v type="int" >       48       96       97      177      186 </v>
   <v type="int" >       48       96      105      185      186 </v>
   <v type="int" >       48       96      176      185      186 </v>
   <v type="int" >       48       96      176      177      186 </v>
   <v type="int" >       48       97      106      107      187 </v>
   <v type="int" >       48       97       98      107      187 </v>
   <v type="int" >       48       97       98      178      187 </v>
   <v type="int" >       48       97      106      186      187 </v>
   <v type="int" >       48       97      177      186      187 </v>
   <v type="int" >       48       97      177      178      187 </v>
   <v type="int" >       48       98      107      108      188 </v>
   <v type="int" >       48       98       99      108      188 </v>
   <v type="int" >       48       98       99      179      188 </v>
   <v type="int" >       48       98      107      187      188 </v>
   <v type="int" >       48       98      178      187      188 </v>
   <v type="int" >       48       98      178      179      188 </v>
   <v type="int" >       48       99      108      109      189 </v>
   <v type="int" >       48       99      100      109      189 </v>
   <v type="int" >       48       99      100      180      189 </v>
   <v type="int" >       48       99      108      188      189 </v>
   <v type="int" >       48       99      179      188      189 </v>
   <v type="int" >       48       99      179      180      189 </v>
   <v type="int" >       24      100      100      109      190 </v>
   <v type="int" >       24      100      100      101      190 </v>
   <v type="int" >       48      100      101      181      190 </v>
   <v type="int" >       48      100      109      189      190 </v>
   <v type="int" >       48      100      180      189      190 </v>
   <v type="int" >       48      100      180      181      190 </v>
   <v type="int" >       24      101      181      181      190 </v>
   <v type="int" >       24      101      181      181      182 </v>
   <v type="int" >       24      102      103      103      110 </v>
   <v type="int" >       24      102      103      103      183 </v>
   <v type="int" >       48      103      110      111      191 </v>
   <v type="int" >       48      103      104      111      191 </v>
   <v type="int" >       48      103      104      184      191 </v>
   <v type="int" >       24      103      103      110      191 </v>
   <v type="int" >       24      103      103      183      191 </v>
   <v type="int" >       48      103      183      184      191 </v>
   <v type="int" >       48      104      111      112      192 </v>
   <v type="int" >       48      104      105      112      192 </v>
   <v type="int" >       48      104      105      185      192 </v>
   <v type="int" >       48      104      111      191      192 </v>
   <v type="int" >       48      104      184      191      192 </v>
   <v type="int" >       48      104      184      185      192 </v>
   <v type="int" >       48      105      112      113      193 </v>
   <v type="int" >       48      105      106      113      193 </v>
   <v type="int" >       48      105      106      186      193 </v>
   <v type="int" >       48      105      112      192      193 </v>
   <v type="int" >       48      105      185      192      193 </v>
   <v type="int" >       48      105      185      186      193 </v>
   <v type="int" >       48      106      113      114      194 </v>
   <v type="int" >       48      106      107      114      194 </v>
   <v type="int" >       48      106      107      187      194 </v>
   <v type="int" >       48      106      113      193      194 </v>
   <v type="int" >       48      106      186      193      194 </v>
   <v type="int" >       48      106      186      187      194 </v>
   <v type="int" >       48      107      114      115      195 </v>
   <v type="int" >       48      107      108      115      195 </v>
   <v type="int" >       48      107      108      188      195 </v>
   <v type="int" >       48      107      114      194      195 </v>
   <v type="int" >       48      107      187      194      195 </v>
   <v type="int" >       48      107      187      188      195 </v>
   <v type="int" >       24      108      108      115      196 </v>
   <v type="int" >       24      108      108      109      196 </v>
   <v type="int" >       48      108      109      189      196 </v>
   <v type="int" >       48      108      115      195      196 </v>
   <v type="int" >       48      108      188      195      196 </v>
   <v type="int" >       48      108      188      189      196 </v>
   <v type="int" >       24      109      189      189      196 </v>
   <v type="int" >       24      109      189      189      190 </v>
   <v type="int" >       24      110      111      111      116 </v>
   <v type="int" >       24      110      111      111      191 </v>
   <v type="int" >       48      111      116      117      197 </v>
   <v type="int" >       48      111      112      117      197 </v>
   <v type="int" >       48      111      112      192      197 </v>
   <v type="int" >       24      111      111      116      197 </v>
   <v type="int" >       24      111      111      191      197 </v>
   <v type="int" >       48      111      191      192      197 </v>
   <v type="int" >       48      112      117      118      198 </v>
   <v type="int" >       48      112      113      118      198 </v>
   <v type="int" >       48      112      113      193      198 </v>
   <v type="int" >       48      112      117      197      198 </v>
   <v type="int" >       48      112      192      197      198 </v>
   <v type="int" >       48      112      192      193      198 </v>
   <v type="int" >       48      113      118      119      199 </v>
   <v type="int" >       48      113      114      119      199 </v>
   <v type="int" >       48      113      114      194      199 </v>
   <v type="int" >       48      113      118      198      199 </v>
   <v type="int" >       48      113      193      198      199 </v>
   <v type="int" >       48      113      193      194      199 </v>
   <v type="int" >       24      114      114      119      200 </v>
   <v type="int" >       24      114      114      115      200 </v>
   <v type="int" >       48      114      115      195      200 </v>
   <v type="int" >       48      114      119      199      200 </v>
   <v type="int" >       48      114      194      199      200 </v>
   <v type="int" >       48      114      194      195      200 </v>
   <v type="int" >       24      115      195      195      200 </v>
   <v type="int" >       24      115      195      195      196 </v>
   <v type="int" >       24      116      117      117      120 </v>
   <v type="int" >       24      116      117      117      197 </v>
   <v type="int" >       48      117      120      121      201 </v>
   <v type="int" >       48      117      118      121      201 </v>
   <v type="int" >       48      117      118      198      201 </v>
   <v type="int" >       24      117      117      120      201 </v>
   <v type="int" >       24      117      117      197      201 </v>
   <v type="int" >       48      117      197      198      201 </v>
   <v type="int" >       24      118      118      121      202 </v>
   <v type="int" >       24      118      118      119      202 </v>
   <v type="int" >       48      118      119      199      202 </v>
   <v type="int" >       48      118      121      201      202 </v>
   <v type="int" >       48      118      198      201      202 </v>
   <v type="int" >       48      118      198      199      202 </v>
   <v type="int" >       24      119      199      199      202 </v>
   <v type="int" >       24      119      199      199      200 </v>
   <v type="int" >       12      120      120      121      121 </v>
   <v type="int" >       24      120      121      121      201 </v>
   <v type="int" >       12      121      121      201      201 </v>
   <v type="int" >       24      121      201      201      202 </v>
   <v type="int" >       24      122      123      123      131 </v>
   <v type="int" >       48      123      131      132      146 </v>
   <v type="int" >       48      123      124      132      146 </v>
   <v type="int" >       24      123      123      131      146 </v>
   <v type="int" >       48      124      132      133      145 </v>
   <v type="int" >       48      124      125      133      145 </v>
   <v type="int" >       48      124      132      145      146 </v>
   <v type="int" >       48      125      133      134      144 </v>
   <v type="int" >       48      125      126      134      144 </v>
   <v type="int" >       48      125      133      144      145 </v>
   <v type="int" >       48      126      134      135      143 </v>
   <v type="int" >       48      126      127      135      143 </v>
   <v type="int" >       48      126      134      143      144 </v>
   <v type="int" >       48      127      135      136      142 </v>
   <v type="int" >       48      127      128      136      142 </v>
   <v type="int" >       48      127      135      142      143 </v>
   <v type="int" >       48      128      136      137      141 </v>
   <v type="int" >       48      128      129      137      141 </v>
   <v type="int" >       48      128      136      141      142 </v>
   <v type="int" >       48      129      137      138      140 </v>
   <v type="int" >       48      129      130      138      140 </v>
   <v type="int" >       48      129      137      140      141 </v>
   <v type="int" >       48      130      138      139      139 </v>
   <v type="int" >       24      130      130      139      139 </v>
   <v type="int" >       48      130      138      139      140 </v>
   <v type="int" >       24      131      132      132      147 </v>
   <v type="int" >       24      131      132      132      146 </v>
   <v type="int" >       48      132      147      148      203 </v>
   <v type="int" >       48      132      133      148      203 </v>
   <v type="int" >       48      132      133      145      203 </v>
   <v type="int" >       24      132      132      147      203 </v>
   <v type="int" >       24      132      132      146      203 </v>
   <v type="int" >       48      132      145      146      203 </v>
   <v type="int" >       48      133      148      149      204 </v>
   <v type="int" >       48      133      134      149      204 </v>
   <v type="int" >       48      133      134      144      204 </v>
   <v type="int" >       48      133      148      203      204 </v>
   <v type="int" >       48      133      145      203      204 </v>
   <v type="int" >       48      133      144      145      204 </v>
   <v type="int" >       48      134      149      150      205 </v>
   <v type="int" >       48      134      135      150      205 </v>
   <v type="int" >       48      134      135      143      205 </v>
   <v type="int" >       48      134      149      204      205 </v>
   <v type="int" >       48      134      144      204      205 </v>
   <v type="int" >       48      134      143      144      205 </v>
   <v type="int" >       48      135      150      151      206 </v>
   <v type="int" >       48      135      136      151      206 </v>
   <v type="int" >       48      135      136      142      206 </v>
   <v type="int" >       48      135      150      205      206 </v>
   <v type="int" >       48      135      143      205      206 </v>
   <v type="int" >       48      135      142      143      206 </v>
   <v type="int" >       48      136      151      152      207 </v>
   <v type="int" >       48      136      137      152      207 </v>
   <v type="int" >       48      136      137      141      207 </v>
   <v type="int" >       48      136      151      206      207 </v>
   <v type="int" >       48      136      142      206      207 </v>
   <v type="int" >       48      136      141      142      207 </v>
   <v type="int" >       48      137      152      153      208 </v>
   <v type="int" >       48      137      138      153      208 </v>
   <v type="int" >       48      137      138      140      208 </v>
   <v type="int" >       48      137      152      207      208 </v>
   <v type="int" >       48      137      141      207      208 </v>
   <v type="int" >       48      137      140      141      208 </v>
   <v type="int" >       48      138      153      154      209 </v>
   <v type="int" >       48      138      139      154      209 </v>
   <v type="int" >       48      138      139      139      209 </v>
   <v type="int" >       48      138      153      208      209 </v>
   <v type="int" >       48      138      140      208      209 </v>
   <v type="int" >       48      138      139      140      209 </v>
   <v type="int" >       48      139      154      155      209 </v>
   <v type="int" >       48      139      140      155      209 </v>
   <v type="int" >       48      139      154      209      209 </v>
   <v type="int" >       24      139      139      209      209 </v>
   <v type="int" >       48      140      155      156      208 </v>
   <v type="int" >       48      140      141      156      208 </v>
   <v type="int" >       48      140      155      208      209 </v>
   <v type="int" >       48      141      156      157      207 </v>
   <v type="int" >       48      141      142      157      207 </v>
   <v type="int" >       48      141      156      207      208 </v>
   <v type="int" >       48      142      157      158      206 </v>
   <v type="int" >       48      142      143      158      206 </v>
   <v type="int" >       48      142      157      206      207 </v>
   <v type="int" >       48      143      158      159      205 </v>
   <v type="int" >       48      143      144      159      205 </v>
   <v type="int" >       48      143      158      205      206 </v>
   <v type="int" >       48      144      159      160      204 </v>
   <v type="int" >       48      144      145      160      204 </v>
   <v type="int" >       48      144      159      204      205 </v>
   <v type="int" >       24      145      145      160      203 </v>
   <v type="int" >       24      145      145      146      203 </v>
   <v type="int" >       48      145      160      203      204 </v>
   <v type="int" >       24      147      148      148      161 </v>
   <v type="int" >       24      147      148      148      203 </v>
   <v type="int" >       48      148      161      162      210 </v>
   <v type="int" >       48      148      149      162      210 </v>
   <v type="int" >       48      148      149      204      210 </v>
   <v type="int" >       24      148      148      161      210 </v>
   <v type="int" >       24      148      148      203      210 </v>
   <v type="int" >       48      148      203      204      210 </v>
   <v type="int" >       48      149      162      163      211 </v>
   <v type="int" >       48      149      150      163      211 </v>
   <v type="int" >       48      149      150      205      211 </v>
   <v type="int" >       48      149      162      210      211 </v>
   <v type="int" >       48      149      204      210      211 </v>
   <v type="int" >       48      149      204      205      211 </v>
   <v type="int" >       48      150      163      164      212 </v>
   <v type="int" >       48      150      151      164      212 </v>
   <v type="int" >       48      150      151      206      212 </v>
   <v type="int" >       48      150      163      211      212 </v>
   <v type="int" >       48      150      205      211      212 </v>
   <v type="int" >       48      150      205      206      212 </v>
   <v type="int" >       48      151      164      165      213 </v>
   <v type="int" >       48      151      152      165      213 </v>
   <v type="int" >       48      151      152      207      213 </v>
   <v type="int" >       48      151      164      212      213 </v>
   <v type="int" >       48      151      206      212      213 </v>
   <v type="int" >       48      151      206      207      213 </v>
   <v type="int" >       48      152      165      166      214 </v>
   <v type="int" >       48      152      153      166      214 </v>
   <v type="int" >       48      152      153      208      214 </v>
   <v type="int" >       48      152      165      213      214 </v>
   <v type="int" >       48      152      207      213      214 </v>
   <v type="int" >       48      152      207      208      214 </v>
   <v type="int" >       48      153      166      167      215 </v>
   <v type="int" >       48      153      154      167      215 </v>
   <v type="int" >       48      153      154      209      215 </v>
   <v type="int" >       48      153      166      214      215 </v>
   <v type="int" >       48      153      208      214      215 </v>
   <v type="int" >       48      153      208      209      215 </v>
   <v type="int" >       48      154      167      168      216 </v>
   <v type="int" >       48      154      155      168      216 </v>
   <v type="int" >       48      154      155      209      216 </v>
   <v type="int" >       48      154      167      215      216 </v>
   <v type="int" >       48      154      209      215      216 </v>
   <v type="int" >       48      154      209      209      216 </v>
   <v type="int" >       48      155      168      169      217 </v>
   <v type="int" >       48      155      156      169      217 </v>
   <v type="int" >       48      155      156      208      217 </v>
   <v type="int" >       48      155      168      216      217 </v>
   <v type="int" >       48      155      209      216      217 </v>
   <v type="int" >       48      155      208      209      217 </v>
   <v type="int" >       48      156      169      170      218 </v>
   <v type="int" >       48      156      157      170      218 </v>
   <v type="int" >       48      156      157      207      218 </v>
   <v type="int" >       48      156      169      217      218 </v>
   <v type="int" >       48      156      208      217      218 </v>
   <v type="int" >       48      156      207      208      218 </v>
   <v type="int" >       48      157      170      171      219 </v>
   <v type="int" >       48      157      158      171      219 </v>
   <v type="int" >       48      157      158      206      219 </v>
   <v type="int" >       48      157      170      218      219 </v>
   <v type="int" >       48      157      207      218      219 </v>
   <v type="int" >       48      157      206      207      219 </v>
   <v type="int" >       48      158      171      172      220 </v>
   <v type="int" >       48      158      159      172      220 </v>
   <v type="int" >       48      158      159      205      220 </v>
   <v type="int" >       48      158      171      219      220 </v>
   <v type="int" >       48      158      206      219      220 </v>
   <v type="int" >       48      158      205      206      220 </v>
   <v type="int" >       24      159      159      172      221 </v>
   <v type="int" >       24      159      159      160      221 </v>
   <v type="int" >       48      159      160      204      221 </v>
   <v type="int" >       48      159      172      220      221 </v>
   <v type="int" >       48      159      205      220      221 </v>
   <v type="int" >       48      159      204      205      221 </v>
   <v type="int" >       24      160      204      204      221 </v>
   <v type="int" >       24      160      203      204      204 </v>
   <v type="int" >       24      161      162      162      173 </v>
   <v type="int" >       24      161      162      162      210 </v>
   <v type="int" >       48      162      173      174      222 </v>
   <v type="int" >       48      162      163      174      222 </v>
   <v type="int" >       48      162      163      211      222 </v>
   <v type="int" >       24      162      162      173      222 </v>
   <v type="int" >       24      162      162      210      222 </v>
   <v type="int" >       48      162      210      211      222 </v>
[...]
       </set>
       <set comment="band 7">
        <r>  0.0069  0.0514  0.0078  0.1368  0.0000  0.0000  0.0000  0.0000  0.0000 </r>
       </set>
       <set comment="band 8">
        <r>  0.0348  0.0070  0.1018  0.0046  0.0000  0.0000  0.0000  0.0000  0.0000 </r>
       </set>
      </set>
      <set comment="kpoint 270">
       <set comment="band 1">
        <r>  0.2529  0.0000  0.1133  0.0358  0.0000  0.0000  0.0000  0.0000  0.0000 </r>
       </set>
       <set comment="band 2">
        <r>  0.0000  0.3230  0.0000  0.0000  0.0000  0.0000  0.0000  0.0000  0.0000 </r>
       </set>
       <set comment="band 3">
        <r>  0.2924  0.0000  0.0548  0.1073  0.0000  0.0000  0.0000  0.0000  0.0000 </r>
       </set>
       <set comment="band 4">
        <r>  0.0634  0.0000  0.1829  0.0943  0.0000  0.0000  0.0000  0.0000  0.0000 </r>
       </set>
       <set comment="band 5">
        <r>  0.0207  0.0000  0.0422  0.2270  0.0000  0.0000  0.0000  0.0000  0.0000 </r>
       </set>
       <set comment="band 6">
        <r>  0.0000  0.1315  0.0000  0.0000  0.0000  0.0000  0.0000  0.0000  0.0000 </r>
       </set>
       <set comment="band 7">
        <r>  0.0591  0.0000  0.0003  0.1409  0.0000  0.0000  0.0000  0.0000  0.0000 </r>
       </set>
       <set comment="band 8">
        <r>  0.0071  0.0000  0.1222  0.0316  0.0000  0.0000  0.0000  0.0000  0.0000 </r>
       </set>
      </set>
      <set comment="kpoint 271">
       <set comment="band 1">
        <r>  0.2274  0.1571  0.0000  0.0116  0.0000  0.0000  0.0000  0.0000  0.0000 </r>
       </set>
       <set comment="band 2">
        <r>  0.2797  0.1919  0.0000  0.0007  0.0000  0.0000  0.0000  0.0000  0.0000 </r>
       </set>
       <set comment="band 3">
        <r>  0.0000  0.0000  0.3130  0.0000  0.0000  0.0000  0.0000  0.0000  0.0000 </r>
       </set>
       <set comment="band 4">
        <r>  0.0891  0.0006  0.0000  0.2524  0.0000  0.0000  0.0000  0.0000  0.0000 </r>
       </set>
       <set comment="band 5">
        <r>  0.0000  0.0000  0.1541  0.0000  0.0000  0.0000  0.0000  0.0000  0.0000 </r>
       </set>
       <set comment="band 6">
        <r>  0.0983  0.0072  0.0000  0.2373  0.0000  0.0000  0.0000  0.0000  0.0000 </r>
       </set>
       <set comment="band 7">
        <r>  0.0239  0.0306  0.0000  0.0702  0.0000  0.0000  0.0000  0.0000  0.0000 </r>
       </set>
       <set comment="band 8">
        <r>  0.0014  0.0671  0.0000  0.0310  0.0000  0.0000  0.0000  0.0000  0.0000 </r>
       </set>
      </set>
      <set comment="kpoint 272">
       <set comment="band 1">
        <r>  0.2059  0.1777  0.0001  0.0127  0.0000  0.0000  0.0000  0.0000  0.0000 </r>
       </set>
       <set comment="band 2">
        <r>  0.3195  0.1457  0.0227  0.0001  0.0000  0.0000  0.0000  0.0000  0.0000 </r>
       </set>
       <set comment="band 3">
        <r>  0.0007  0.0203  0.2136  0.0607  0.0000  0.0000  0.0000  0.0000  0.0000 </r>
       </set>
       <set comment="band 4">
        <r>  0.0824  0.0001  0.0818  0.1773  0.0000  0.0000  0.0000  0.0000  0.0000 </r>
       </set>
       <set comment="band 5">
        <r>  0.0272  0.0008  0.1036  0.0676  0.0000  0.0000  0.0000  0.0000  0.0000 </r>
       </set>
       <set comment="band 6">
        <r>  0.0514  0.0028  0.0446  0.1997  0.0000  0.0000  0.0000  0.0000  0.0000 </r>
       </set>
       <set comment="band 7">
        <r>  0.0253  0.0459  0.0012  0.0520  0.0000  0.0000  0.0000  0.0000  0.0000 </r>
       </set>
       <set comment="band 8">
        <r>  0.0098  0.0609  0.0019  0.0533  0.0000  0.0000  0.0000  0.0000  0.0000 </r>
       </set>
      </set>
      <set comment="kpoint 273">
       <set comment="band 1">
        <r>  0.1899  0.2052  0.0003  0.0073  0.0000  0.0000  0.0000  0.0000  0.0000 </r>
       </set>
       <set comment="band 2">
        <r>  0.2406  0.0648  0.1087  0.0230  0.0000  0.0000  0.0000  0.0000  0.0000 </r>
       </set>
       <set comment="band 3">
        <r>  0.1074  0.0687  0.0872  0.0743  0.0000  0.0000  0.0000  0.0000  0.0000 </r>
       </set>
       <set comment="band 4">
        <r>  0.0775  0.0000  0.1287  0.1377  0.0000  0.0000  0.0000  0.0000  0.0000 </r>
       </set>
       <set comment="band 5">
        <r>  0.0370  0.0004  0.0738  0.1147  0.0000  0.0000  0.0000  0.0000  0.0000 </r>
       </set>
       <set comment="band 6">
        <r>  0.0212  0.0010  0.0657  0.1909  0.0000  0.0000  0.0000  0.0000  0.0000 </r>
       </set>
       <set comment="band 7">
        <r>  0.0191  0.0747  0.0038  0.0217  0.0000  0.0000  0.0000  0.0000  0.0000 </r>
       </set>
       <set comment="band 8">
        <r>  0.0293  0.0379  0.0089  0.0672  0.0000  0.0000  0.0000  0.0000  0.0000 </r>
       </set>
      </set>
      <set comment="kpoint 274">
       <set comment="band 1">
        <r>  0.2848  0.0000  0.1224  0.0302  0.0000  0.0000  0.0000  0.0000  0.0000 </r>
       </set>
       <set comment="band 2">
        <r>  0.0000  0.3334  0.0000  0.0000  0.0000  0.0000  0.0000  0.0000  0.0000 </r>
       </set>
       <set comment="band 3">
        <r>  0.2595  0.0000  0.0571  0.0902  0.0000  0.0000  0.0000  0.0000  0.0000 </r>
       </set>
       <set comment="band 4">
        <r>  0.0725  0.0000  0.1535  0.1172  0.0000  0.0000  0.0000  0.0000  0.0000 </r>
       </set>
       <set comment="band 5">
        <r>  0.0363  0.0000  0.0576  0.1476  0.0000  0.0000  0.0000  0.0000  0.0000 </r>
       </set>
       <set comment="band 6">
        <r>  0.0011  0.0000  0.0551  0.2194  0.0000  0.0000  0.0000  0.0000  0.0000 </r>
       </set>
       <set comment="band 7">
        <r>  0.0000  0.1194  0.0000  0.0000  0.0000  0.0000  0.0000  0.0000  0.0000 </r>
       </set>
       <set comment="band 8">
        <r>  0.0612  0.0000  0.0397  0.0381  0.0000  0.0000  0.0000  0.0000  0.0000 </r>
       </set>
      </set>
      <set comment="kpoint 275">
       <set comment="band 1">
        <r>  0.1531  0.2257  0.0000  0.0068  0.0000  0.0000  0.0000  0.0000  0.0000 </r>
       </set>
       <set comment="band 2">
        <r>  0.3240  0.1200  0.0000  0.0093  0.0000  0.0000  0.0000  0.0000  0.0000 </r>
       </set>
       <set comment="band 3">
        <r>  0.0000  0.0000  0.3148  0.0000  0.0000  0.0000  0.0000  0.0000  0.0000 </r>
       </set>
       <set comment="band 4">
        <r>  0.1235  0.0000  0.0000  0.2483  0.0000  0.0000  0.0000  0.0000  0.0000 </r>
       </set>
       <set comment="band 5">
        <r>  0.0000  0.0000  0.1537  0.0000  0.0000  0.0000  0.0000  0.0000  0.0000 </r>
       </set>
       <set comment="band 6">
        <r>  0.1038  0.0008  0.0000  0.2359  0.0000  0.0000  0.0000  0.0000  0.0000 </r>
       </set>
       <set comment="band 7">
        <r>  0.0133  0.0486  0.0000  0.0519  0.0000  0.0000  0.0000  0.0000  0.0000 </r>
       </set>
       <set comment="band 8">
        <r>  0.0097  0.0456  0.0000  0.0583  0.0000  0.0000  0.0000  0.0000  0.0000 </r>
       </set>
      </set>
      <set comment="kpoint 276">
       <set comment="band 1">
        <r>  0.0000  0.3423  0.0000  0.0000  0.0000  0.0000  0.0000  0.0000  0.0000 </r>
       </set>
       <set comment="band 2">
        <r>  0.4975  0.0000  0.0003  0.0167  0.0000  0.0000  0.0000  0.0000  0.0000 </r>
       </set>
       <set comment="band 3">
        <r>  0.0181  0.0000  0.2325  0.0618  0.0000  0.0000  0.0000  0.0000  0.0000 </r>
       </set>
       <set comment="band 4">
        <r>  0.0953  0.0000  0.0858  0.1725  0.0000  0.0000  0.0000  0.0000  0.0000 </r>
       </set>
       <set comment="band 5">
        <r>  0.0277  0.0000  0.1047  0.0665  0.0000  0.0000  0.0000  0.0000  0.0000 </r>
       </set>
       <set comment="band 6">
        <r>  0.0546  0.0000  0.0449  0.1991  0.0000  0.0000  0.0000  0.0000  0.0000 </r>
       </set>
       <set comment="band 7">
        <r>  0.0000  0.1017  0.0000  0.0000  0.0000  0.0000  0.0000  0.0000  0.0000 </r>
       </set>
       <set comment="band 8">
        <r>  0.0343  0.0000  0.0027  0.1103  0.0000  0.0000  0.0000  0.0000  0.0000 </r>
       </set>
      </set>
      <set comment="kpoint 277">
       <set comment="band 1">
        <r>  0.2547  0.1192  0.0000  0.0239  0.0000  0.0000  0.0000  0.0000  0.0000 </r>
       </set>
       <set comment="band 2">
        <r>  0.0000  0.0000  0.3159  0.0000  0.0000  0.0000  0.0000  0.0000  0.0000 </r>
       </set>
       <set comment="band 3">
        <r>  0.3036  0.0755  0.0000  0.1184  0.0000  0.0000  0.0000  0.0000  0.0000 </r>
       </set>
       <set comment="band 4">
        <r>  0.0459  0.1598  0.0000  0.1007  0.0000  0.0000  0.0000  0.0000  0.0000 </r>
       </set>
       <set comment="band 5">
        <r>  0.0000  0.0000  0.1434  0.0000  0.0000  0.0000  0.0000  0.0000  0.0000 </r>
       </set>
       <set comment="band 6">
        <r>  0.0247  0.0296  0.0000  0.3355  0.0000  0.0000  0.0000  0.0000  0.0000 </r>
       </set>
       <set comment="band 7">
        <r>  0.0730  0.0131  0.0000  0.0131  0.0000  0.0000  0.0000  0.0000  0.0000 </r>
       </set>
       <set comment="band 8">
        <r>  0.0002  0.1060  0.0000  0.0284  0.0000  0.0000  0.0000  0.0000  0.0000 </r>
       </set>
      </set>
      <set comment="kpoint 278">
       <set comment="band 1">
        <r>  0.2444  0.1306  0.0001  0.0267  0.0000  0.0000  0.0000  0.0000  0.0000 </r>
       </set>
       <set comment="band 2">
        <r>  0.0916  0.0150  0.2161  0.0372  0.0000  0.0000  0.0000  0.0000  0.0000 </r>
       </set>
       <set comment="band 3">
        <r>  0.2382  0.0602  0.1038  0.0569  0.0000  0.0000  0.0000  0.0000  0.0000 </r>
       </set>
       <set comment="band 4">
        <r>  0.0390  0.1402  0.0019  0.1153  0.0000  0.0000  0.0000  0.0000  0.0000 </r>
       </set>
       <set comment="band 5">
        <r>  0.0083  0.0158  0.0583  0.2066  0.0000  0.0000  0.0000  0.0000  0.0000 </r>
       </set>
       <set comment="band 6">
        <r>  0.0032  0.0221  0.0643  0.1395  0.0000  0.0000  0.0000  0.0000  0.0000 </r>
       </set>
       <set comment="band 7">
        <r>  0.0741  0.0090  0.0171  0.0156  0.0000  0.0000  0.0000  0.0000  0.0000 </r>
       </set>
       <set comment="band 8">
        <r>  0.0088  0.0987  0.0027  0.0388  0.0000  0.0000  0.0000  0.0000  0.0000 </r>
       </set>
      </set>
      <set comment="kpoint 279">
       <set comment="band 1">
        <r>  0.2677  0.1322  0.0006  0.0208  0.0000  0.0000  0.0000  0.0000  0.0000 </r>
       </set>
       <set comment="band 2">
        <r>  0.0905  0.0282  0.1786  0.0540  0.0000  0.0000  0.0000  0.0000  0.0000 </r>
       </set>
       <set comment="band 3">
        <r>  0.2492  0.0874  0.1309  0.0111  0.0000  0.0000  0.0000  0.0000  0.0000 </r>
       </set>
       <set comment="band 4">
        <r>  0.0101  0.0896  0.0194  0.1472  0.0000  0.0000  0.0000  0.0000  0.0000 </r>
       </set>
       <set comment="band 5">
        <r>  0.0014  0.0235  0.0372  0.2679  0.0000  0.0000  0.0000  0.0000  0.0000 </r>
       </set>
       <set comment="band 6">
        <r>  0.0417  0.0292  0.0361  0.0151  0.0000  0.0000  0.0000  0.0000  0.0000 </r>
       </set>
       <set comment="band 7">
        <r>  0.0181  0.0104  0.0538  0.1076  0.0000  0.0000  0.0000  0.0000  0.0000 </r>
       </set>
       <set comment="band 8">
        <r>  0.0322  0.0807  0.0143  0.0213  0.0000  0.0000  0.0000  0.0000  0.0000 </r>
       </set>
      </set>
      <set comment="kpoint 280">
       <set comment="band 1">
        <r>  0.2280  0.1516  0.0000  0.0195  0.0000  0.0000  0.0000  0.0000  0.0000 </r>
       </set>
       <set comment="band 2">
        <r>  0.0000  0.0000  0.3187  0.0000  0.0000  0.0000  0.0000  0.0000  0.0000 </r>
       </set>
       <set comment="band 3">
        <r>  0.3840  0.1433  0.0000  0.0236  0.0000  0.0000  0.0000  0.0000  0.0000 </r>
       </set>
       <set comment="band 4">
        <r>  0.0020  0.0493  0.0000  0.1972  0.0000  0.0000  0.0000  0.0000  0.0000 </r>
       </set>
       <set comment="band 5">
        <r>  0.0000  0.0000  0.1455  0.0000  0.0000  0.0000  0.0000  0.0000  0.0000 </r>
       </set>
       <set comment="band 6">
        <r>  0.0467  0.0107  0.0000  0.3150  0.0000  0.0000  0.0000  0.0000  0.0000 </r>
       </set>
       <set comment="band 7">
        <r>  0.0473  0.0385  0.0000  0.0300  0.0000  0.0000  0.0000  0.0000  0.0000 </r>
       </set>
       <set comment="band 8">
        <r>  0.0108  0.0769  0.0000  0.0478  0.0000  0.0000  0.0000  0.0000  0.0000 </r>
       </set>
      </set>
      <set comment="kpoint 281">
       <set comment="band 1">
        <r>  0.2206  0.1676  0.0000  0.0180  0.0000  0.0000  0.0000  0.0000  0.0000 </r>
       </set>
       <set comment="band 2">
        <r>  0.1200  0.0246  0.2010  0.0311  0.0000  0.0000  0.0000  0.0000  0.0000 </r>
       </set>
       <set comment="band 3">
        <r>  0.2618  0.1277  0.0759  0.0027  0.0000  0.0000  0.0000  0.0000  0.0000 </r>
       </set>
       <set comment="band 4">
        <r>  0.0189  0.0176  0.0474  0.1817  0.0000  0.0000  0.0000  0.0000  0.0000 </r>
       </set>
       <set comment="band 5">
        <r>  0.0170  0.0028  0.0780  0.1452  0.0000  0.0000  0.0000  0.0000  0.0000 </r>
       </set>
       <set comment="band 6">
        <r>  0.0058  0.0084  0.0577  0.2173  0.0000  0.0000  0.0000  0.0000  0.0000 </r>
       </set>
       <set comment="band 7">
        <r>  0.0465  0.0572  0.0041  0.0013  0.0000  0.0000  0.0000  0.0000  0.0000 </r>
       </set>
       <set comment="band 8">
        <r>  0.0335  0.0597  0.0025  0.0476  0.0000  0.0000  0.0000  0.0000  0.0000 </r>
       </set>
      </set>
      <set comment="kpoint 282">
       <set comment="band 1">
        <r>  0.3075  0.0174  0.1185  0.0100  0.0000  0.0000  0.0000  0.0000  0.0000 </r>
       </set>
       <set comment="band 2">
        <r>  0.0190  0.2113  0.0516  0.0422  0.0000  0.0000  0.0000  0.0000  0.0000 </r>
       </set>
       <set comment="band 3">
        <r>  0.2504  0.1012  0.0540  0.0378  0.0000  0.0000  0.0000  0.0000  0.0000 </r>
       </set>
       <set comment="band 4">
        <r>  0.0465  0.0018  0.1069  0.1411  0.0000  0.0000  0.0000  0.0000  0.0000 </r>
       </set>
       <set comment="band 5">
        <r>  0.0137  0.0020  0.0567  0.2169  0.0000  0.0000  0.0000  0.0000  0.0000 </r>
       </set>
       <set comment="band 6">
        <r>  0.0117  0.0469  0.0277  0.1102  0.0000  0.0000  0.0000  0.0000  0.0000 </r>
       </set>
       <set comment="band 7">
        <r>  0.0020  0.0649  0.0277  0.0862  0.0000  0.0000  0.0000  0.0000  0.0000 </r>
       </set>
       <set comment="band 8">
        <r>  0.0733  0.0152  0.0286  0.0043  0.0000  0.0000  0.0000  0.0000  0.0000 </r>
       </set>
      </set>
      <set comment="kpoint 283">
       <set comment="band 1">
        <r>  0.2379  0.0000  0.1427  0.0278  0.0000  0.0000  0.0000  0.0000  0.0000 </r>
       </set>
       <set comment="band 2">
        <r>  0.0000  0.3259  0.0000  0.0000  0.0000  0.0000  0.0000  0.0000  0.0000 </r>
       </set>
       <set comment="band 3">
        <r>  0.3314  0.0000  0.0602  0.0850  0.0000  0.0000  0.0000  0.0000  0.0000 </r>
       </set>
       <set comment="band 4">
        <r>  0.0514  0.0000  0.1353  0.1186  0.0000  0.0000  0.0000  0.0000  0.0000 </r>
       </set>
       <set comment="band 5">
        <r>  0.0040  0.0000  0.0448  0.2889  0.0000  0.0000  0.0000  0.0000  0.0000 </r>
       </set>
       <set comment="band 6">
        <r>  0.0000  0.1345  0.0000  0.0000  0.0000  0.0000  0.0000  0.0000  0.0000 </r>
       </set>
       <set comment="band 7">
        <r>  0.0577  0.0000  0.0171  0.0999  0.0000  0.0000  0.0000  0.0000  0.0000 </r>
       </set>
       <set comment="band 8">
        <r>  0.0362  0.0000  0.0803  0.0269  0.0000  0.0000  0.0000  0.0000  0.0000 </r>
       </set>
      </set>
      <set comment="kpoint 284">
       <set comment="band 1">
        <r>  0.1632  0.2171  0.0000  0.0108  0.0000  0.0000  0.0000  0.0000  0.0000 </r>
       </set>
       <set comment="band 2">
        <r>  0.3631  0.1217  0.0000  0.0070  0.0000  0.0000  0.0000  0.0000  0.0000 </r>
       </set>
       <set comment="band 3">
        <r>  0.0000  0.0000  0.3203  0.0000  0.0000  0.0000  0.0000  0.0000  0.0000 </r>
       </set>
       <set comment="band 4">
        <r>  0.0928  0.0009  0.0000  0.2218  0.0000  0.0000  0.0000  0.0000  0.0000 </r>
       </set>
       <set comment="band 5">
        <r>  0.0000  0.0000  0.1463  0.0000  0.0000  0.0000  0.0000  0.0000  0.0000 </r>
       </set>
       <set comment="band 6">
        <r>  0.0567  0.0013  0.0000  0.3050  0.0000  0.0000  0.0000  0.0000  0.0000 </r>
       </set>
       <set comment="band 7">
        <r>  0.0197  0.0765  0.0000  0.0219  0.0000  0.0000  0.0000  0.0000  0.0000 </r>
       </set>
       <set comment="band 8">
        <r>  0.0336  0.0350  0.0000  0.0718  0.0000  0.0000  0.0000  0.0000  0.0000 </r>
       </set>
      </set>
      <set comment="kpoint 285">
       <set comment="band 1">
        <r>  0.0000  0.3357  0.0000  0.0000  0.0000  0.0000  0.0000  0.0000  0.0000 </r>
       </set>
       <set comment="band 2">
        <r>  0.4943  0.0000  0.0554  0.0004  0.0000  0.0000  0.0000  0.0000  0.0000 </r>
       </set>
       <set comment="band 3">
        <r>  0.0593  0.0000  0.1971  0.0666  0.0000  0.0000  0.0000  0.0000  0.0000 </r>
       </set>
       <set comment="band 4">
        <r>  0.0704  0.0000  0.0722  0.1662  0.0000  0.0000  0.0000  0.0000  0.0000 </r>
       </set>
       <set comment="band 5">
        <r>  0.0194  0.0000  0.0828  0.1346  0.0000  0.0000  0.0000  0.0000  0.0000 </r>
       </set>
       <set comment="band 6">
        <r>  0.0128  0.0000  0.0569  0.2215  0.0000  0.0000  0.0000  0.0000  0.0000 </r>
       </set>
       <set comment="band 7">
        <r>  0.0000  0.1195  0.0000  0.0000  0.0000  0.0000  0.0000  0.0000  0.0000 </r>
       </set>
       <set comment="band 8">
        <r>  0.0742  0.0000  0.0040  0.0578  0.0000  0.0000  0.0000  0.0000  0.0000 </r>
       </set>
      </set>
      <set comment="kpoint 286">
       <set comment="band 1">
        <r>  0.2100  0.1938  0.0000  0.0120  0.0000  0.0000  0.0000  0.0000  0.0000 </r>
       </set>
       <set comment="band 2">
        <r>  0.0000  0.0000  0.3277  0.0000  0.0000  0.0000  0.0000  0.0000  0.0000 </r>
       </set>
       <set comment="band 3">
        <r>  0.4165  0.1129  0.0000  0.0074  0.0000  0.0000  0.0000  0.0000  0.0000 </r>
       </set>
       <set comment="band 4">
        <r>  0.0001  0.0261  0.0000  0.2102  0.0000  0.0000  0.0000  0.0000  0.0000 </r>
       </set>
       <set comment="band 5">
        <r>  0.0022  0.0123  0.0000  0.3881  0.0000  0.0000  0.0000  0.0000  0.0000 </r>
       </set>
       <set comment="band 6">
        <r>  0.0000  0.0000  0.1353  0.0000  0.0000  0.0000  0.0000  0.0000  0.0000 </r>
       </set>
       <set comment="band 7">
        <r>  0.0175  0.0976  0.0000  0.0187  0.0000  0.0000  0.0000  0.0000  0.0000 </r>
       </set>
       <set comment="band 8">
        <r>  0.0843  0.0193  0.0000  0.0142  0.0000  0.0000  0.0000  0.0000  0.0000 </r>
       </set>
      </set>
     </set>
    </set>
   </array>
  </projected>
 </calculation>
 <structure name="finalpos" >
  <crystal>
   <varray name="basis" >
    <v>       1.95000000       1.95000000       0.00000000 </v>
    <v>       0.00000000       1.95000000       1.95000000 </v>
    <v>       1.95000000       0.00000000       1.95000000 </v>
   </varray>
   <i name="volume">     14.82975000 </i>
   <varray name="rec_basis" >
    <v>       0.25641026       0.25641026      -0.25641026 </v>
    <v>      -0.25641026       0.25641026       0.25641026 </v>
    <v>       0.25641026      -0.25641026       0.25641026 </v>
   </varray>
  </crystal>
  <varray name="positions" >
   <v>       0.00000000       0.00000000       0.00000000 </v>
  </varray>
 </structure>
</modeling>
